Read Attempt, after unfolding 
10000 atoms
9900 bonds
0 dihedrals
0 impropers
1 atom types
1 bond types
-11.41678 11.41678 xlo xhi
-11.41678 11.41678 ylo yhi
-11.41678 11.41678 zlo zhi
0 0 0 xy xz yz

Masses

1 1

Atoms

1 1 1 6.92647689360339 -0.346189010630999 7.94485379165732 0 0 0
2 1 1 6.33127203829958 0.26959034449925695 8.23943065053395 0 0 0
3 1 1 6.60156490277516 0.5913726380630171 7.40866742153499 0 0 0
4 1 1 6.028105926045389 1.2858774979235301 7.85366554456468 0 0 0
5 1 1 6.26249579885437 1.9923231822711203 8.45664990578854 0 0 0
6 1 1 6.132161973179821 2.90123916152332 8.63575997357133 0 0 0
7 1 1 7.06167688325506 2.98648778940247 8.88809662484036 0 0 0
8 1 1 7.4264501833283605 2.6631980424587 8.05920865420859 0 0 0
9 1 1 7.51155273385907 3.13284175607755 7.22493706606092 0 0 0
10 1 1 7.36184130194801 2.6798373376121 6.38968818852515 0 0 0
11 1 1 6.5381285861163905 2.574398815343 6.78503165710957 0 0 0
12 1 1 7.050404485632219 1.84297577063038 6.970813382787569 0 0 0
13 1 1 6.76680047381744 1.60298852747859 6.11946397943746 0 0 0
14 1 1 6.75913471789617 2.18180851132225 5.4009378161130295 0 0 0
15 1 1 6.381727060072921 2.7756517943267407 4.74176685457251 0 0 0
16 1 1 7.113244524135059 2.9757067363442404 4.23258593365823 0 0 0
17 1 1 6.3742826821463705 2.61683107277617 3.65739162462287 0 0 0
18 1 1 6.22249939943303 2.5719945721524597 2.73802753449208 0 0 0
19 1 1 5.675770419837249 1.86739086205057 3.0750098915944504 0 0 0
20 1 1 5.933733026694651 1.0173378713709 3.0351444463010098 0 0 0
21 1 1 5.1069250999344105 0.6264190654437479 3.25815628877764 0 0 0
22 1 1 4.442588745897821 0.0657649214787579 2.85932856150683 0 0 0
23 1 1 5.342537006071519 0.09428087702451472 2.2872371055647998 0 0 0
24 1 1 5.30148789996192 -0.75887615351494 2.5562963949575095 0 0 0
25 1 1 4.8478023986562 -0.8034765906198961 3.40147772597133 0 0 0
26 1 1 4.12553698963494 -1.4608967598223999 3.5309530264274596 0 0 0
27 1 1 4.46446707920125 -2.27879143759567 3.7395811182741405 0 0 0
28 1 1 5.3483907363002805 -2.4458412393848903 4.05457774339229 0 0 0
29 1 1 5.96573651546458 -1.84112450191659 4.40648106949367 0 0 0
30 1 1 5.9794937324399005 -1.9251671398880201 5.316345827613481 0 0 0
31 1 1 6.89172032757131 -2.09971655526007 5.31947861782896 0 0 0
32 1 1 6.40835916753296 -2.74558070937047 4.86974448609673 0 0 0
33 1 1 6.9941058837845 -2.15985518115364 4.39474383398373 0 0 0
34 1 1 7.11043040982392 -1.1939944877830602 4.07165024576276 0 0 0
35 1 1 8.06729101148796 -1.3988123958477199 4.0380999398676805 0 0 0
36 1 1 8.206092381038179 -0.8202479513329041 4.83053538346464 0 0 0
37 1 1 7.88936753659442 -0.19734066769524394 4.18722223651102 0 0 0
38 1 1 6.98686866227748 8.602959483644534e-05 4.2295424428761805 0 0 0
39 1 1 7.256730367625389 -0.007011766150718247 5.14019471185613 0 0 0
40 1 1 7.1165805411210705 -0.961945976004225 5.147669548073679 0 0 0
41 1 1 7.536060498696611 -1.03867634612168 5.929741482504211 0 0 0
42 1 1 7.5117617206852305 -1.24800174536452 6.8364156425305795 0 0 0
43 1 1 8.27796361497057 -1.2812689901394299 7.43663010063811 0 0 0
44 1 1 7.780234361059329 -0.862287703493402 8.179279616743031 0 0 0
45 1 1 7.888287697809839 0.07847354874452073 7.861611326704001 0 0 0
46 1 1 7.864141142058379 -0.202438618321453 6.95208271288072 0 0 0
47 1 1 6.8744979612092605 -0.18527019762296104 6.85835044413877 0 0 0
48 1 1 7.33295902242923 0.49449491589254213 6.39499532819149 0 0 0
49 1 1 6.3731193481909 0.576744059929075 6.157854768583809 0 0 0
50 1 1 6.12763781609582 -0.18789263639214393 5.642422796174119 0 0 0
51 1 1 6.0431143396478495 -0.922583277984042 5.01201541489826 0 0 0
52 1 1 5.7719371525542105 -0.33587261060541407 4.37782684402345 0 0 0
53 1 1 6.07320557543534 0.4374371100258839 3.85893499666692 0 0 0
54 1 1 5.809816063138911 -0.1807358697561411 3.14612202483108 0 0 0
55 1 1 6.1597320509669995 -0.9592448811006842 3.6044671979496403 0 0 0
56 1 1 6.1771006709892795 -1.95211998809613 3.41919082068784 0 0 0
57 1 1 6.914001354933389 -1.4818281503608701 2.95782507369164 0 0 0
58 1 1 6.69885758042163 -0.7164741197024821 2.3901968468013104 0 0 0
59 1 1 5.91114831689203 -0.652976016523015 1.74039488919808 0 0 0
60 1 1 6.04879568921821 0.270175863011886 1.52251731992601 0 0 0
61 1 1 6.769627417916809 -0.28015411824951497 1.15630513434717 0 0 0
62 1 1 7.44954982747497 -0.9452785889286519 1.1838936445303898 0 0 0
63 1 1 7.541832001281709 -1.69950764136617 1.70310128257247 0 0 0
64 1 1 7.15260774722901 -2.5817130308847402 1.78381615044755 0 0 0
65 1 1 6.47082708801245 -2.42073603497732 1.16449120003597 0 0 0
66 1 1 6.42889113272215 -1.58084997206279 1.6284969392991 0 0 0
67 1 1 5.771595703735451 -1.8350580747802099 2.31890884362531 0 0 0
68 1 1 5.17237540928183 -1.76818994146153 3.07950427208818 0 0 0
69 1 1 4.29441728140994 -1.9936656363751901 2.7308348863102 0 0 0
70 1 1 4.642584144125981 -2.85564886283599 2.80204157855124 0 0 0
71 1 1 5.58117389861889 -2.7579083308241006 2.92413628712154 0 0 0
72 1 1 5.6931858060080005 -2.9130827135237096 1.95230196521937 0 0 0
73 1 1 4.83648154176274 -3.30304074028238 1.84053277904073 0 0 0
74 1 1 4.99071597766338 -4.10617017719427 2.4036979648812498 0 0 0
75 1 1 5.61735343029747 -4.58407709624977 2.89971173790271 0 0 0
76 1 1 5.40451393582379 -4.766548288015111 3.82279867255356 0 0 0
77 1 1 4.52750179254301 -5.12348988875933 4.1756259133849705 0 0 0
78 1 1 5.33026998260983 -5.493870180148691 4.70084151539466 0 0 0
79 1 1 4.86274733959486 -6.14331980487739 5.22985276831512 0 0 0
80 1 1 4.45974680336243 -6.901704726185289 4.84679336260561 0 0 0
81 1 1 5.07931705636316 -7.3573606806596 4.26555887223455 0 0 0
82 1 1 4.28518916215799 -7.25713334223896 3.65589153599812 0 0 0
83 1 1 4.014844882307901 -8.06490657361602 3.3307211902153395 0 0 0
84 1 1 4.73582211195051 -8.739488451238989 3.4291237517586897 0 0 0
85 1 1 4.06222573492563 -9.134941966702948 4.01461066216313 0 0 0
86 1 1 3.44988942111669 -9.525563861959109 3.3592170230317198 0 0 0
87 1 1 3.75622874476555 -10.318019154332301 2.8125914256222098 0 0 0
88 1 1 3.47211755318944 -11.206782982529699 2.9322877524475897 0 0 0
89 1 1 2.94256176359777 -11.0847031606548 2.10130961432521 0 0 0
90 1 1 2.65351732363996 -11.1686956949319 1.16421903127806 0 0 0
91 1 1 3.44490797970097 -11.629292194259799 0.948089659091382 0 0 0
92 1 1 3.7702314073591103 -10.773623248773697 1.18064009401849 0 0 0
93 1 1 4.373492929866851 -10.183366420711598 1.6635314240601498 0 0 0
94 1 1 4.93323575774695 -9.564231657815068 2.19580108233145 0 0 0
95 1 1 5.253684230429 -9.79789892469206 1.3081335762126898 0 0 0
96 1 1 4.9399085914741105 -10.4476088860529 0.704155751175842 0 0 0
97 1 1 5.54098640407251 -11.163075182300298 0.613546688749791 0 0 0
98 1 1 4.9535555577479204 -11.352208270305297 1.3507332283511901 0 0 0
99 1 1 4.2714702442765295 -12.003198182586598 1.29181389021278 0 0 0
100 1 1 4.11604456031461 -12.479122190592696 0.500416370178174 0 0 0
101 1 1 -4.26841521223965 -1.31149241860596 1.83790457999232 0 0 0
102 1 1 -4.34831670603885 -2.25375673389386 1.78675298683595 0 0 0
103 1 1 -3.8501144461435897 -2.90389916779764 2.32895594194571 0 0 0
104 1 1 -3.35200639163525 -2.14427712069763 1.99956187663965 0 0 0
105 1 1 -2.6617850124625897 -2.02333041403425 1.43328255285452 0 0 0
106 1 1 -1.94031822820575 -1.7250607881275402 2.00415534025798 0 0 0
107 1 1 -1.5069183515740001 -2.36683167166421 1.4412342782245502 0 0 0
108 1 1 -0.605484061646173 -2.2230255994634502 1.63031668808151 0 0 0
109 1 1 -0.395049058441826 -2.43560215100827 2.56447274502462 0 0 0
110 1 1 -0.46277128783386207 -3.3294666907053596 2.10150754165144 0 0 0
111 1 1 -0.7360387197372501 -4.25418071016684 1.80854118470165 0 0 0
112 1 1 -0.292808191768627 -3.65790065676499 1.12416252974848 0 0 0
113 1 1 -1.00166324338333 -3.10244318550311 0.7687664614109591 0 0 0
114 1 1 -1.73649304374066 -2.97868204066027 0.23162460314977595 0 0 0
115 1 1 -1.94571153088627 -3.65893601355198 -0.404251510160069 0 0 0
116 1 1 -1.76055769469034 -4.46718041493012 -0.8312930854993661 0 0 0
117 1 1 -2.48124881700127 -4.8153349119503 -1.2656473963396602 0 0 0
118 1 1 -3.2717137343390603 -4.48918294094137 -1.7365724986066302 0 0 0
119 1 1 -2.45749977957422 -3.9389621992082406 -1.7492225967420805 0 0 0
120 1 1 -2.87532960101596 -4.07933664072977 -2.6011840584558508 0 0 0
121 1 1 -2.74517713097096 -4.12716968020027 -3.6324334773668308 0 0 0
122 1 1 -2.34434254008788 -4.9332153189117305 -3.9484630668019807 0 0 0
123 1 1 -3.04995004346313 -5.544093710607929 -3.6657873461711907 0 0 0
124 1 1 -3.67947583207213 -4.77687906510492 -3.8953666290663 0 0 0
125 1 1 -3.84724727643215 -5.56066537620484 -4.410010379181941 0 0 0
126 1 1 -3.0523734839914196 -5.60502315114457 -4.942736408180201 0 0 0
127 1 1 -2.4060486055680497 -5.67489001164128 -5.667138308804651 0 0 0
128 1 1 -1.60678208920671 -5.75272436613528 -6.22408425529062 0 0 0
129 1 1 -1.88484916433563 -4.84584029988451 -6.25508841094074 0 0 0
130 1 1 -1.1013290289057 -4.718413683176401 -5.6519108381395196 0 0 0
131 1 1 -1.40287243421108 -4.3521677972375 -4.812331053715781 0 0 0
132 1 1 -1.29240220429791 -4.901217084187491 -4.04261088622732 0 0 0
133 1 1 -0.980174469525799 -5.8001051402844706 -4.077518609021641 0 0 0
134 1 1 -1.2612325766752 -6.515220314374731 -3.4084942138198597 0 0 0
135 1 1 -0.360904645187363 -6.54356560102302 -3.1868194689828098 0 0 0
136 1 1 -0.44247401505312906 -7.03253377164858 -4.06439458456062 0 0 0
137 1 1 -0.8091382637285152 -7.95736409021074 -4.15340482226091 0 0 0
138 1 1 -0.8908787164223052 -7.614173967092491 -3.23676628310363 0 0 0
139 1 1 -0.7702939105689082 -7.392705233203389 -2.3398993359572597 0 0 0
140 1 1 -1.7046614866094303 -7.39106433626285 -2.49951728466882 0 0 0
141 1 1 -1.5680172540452504 -6.9059110366122995 -1.7461756480339798 0 0 0
142 1 1 -1.1809001978352203 -6.10145037764382 -1.53665765803563 0 0 0
143 1 1 -1.8479163962034302 -5.53097209386984 -1.8054940309773702 0 0 0
144 1 1 -2.1172860844633403 -5.930555600125801 -0.998868928056091 0 0 0
145 1 1 -1.5264573895747504 -5.819685847826 -0.27791510210134396 0 0 0
146 1 1 -1.5261889044035504 -6.822555277846219 -0.141026541262278 0 0 0
147 1 1 -1.1231572356074304 -7.632525711351531 0.08313274296844497 0 0 0
148 1 1 -1.4784893769961505 -7.8029362983074995 0.937872828218858 0 0 0
149 1 1 -2.36730260018553 -7.4934737146593 0.639167912482129 0 0 0
150 1 1 -2.1141389981235004 -8.31187777526999 0.33031212755230605 0 0 0
151 1 1 -1.3535466691090106 -8.691596659081549 -0.06464440862998977 0 0 0
152 1 1 -0.7522930948248684 -8.363001465819861 -0.698012078418717 0 0 0
153 1 1 -1.6176087804837005 -8.12473781267914 -1.13879433134854 0 0 0
154 1 1 -1.0116860717077505 -7.32843517099069 -0.962828576612106 0 0 0
155 1 1 -0.38011103727075746 -6.90149210228892 -1.44487549741687 0 0 0
156 1 1 0.08337655259196586 -7.74298993294408 -1.4545069007393998 0 0 0
157 1 1 0.9381454661971055 -8.13083463800591 -1.3079352025153201 0 0 0
158 1 1 0.47676298929002753 -8.137608558866251 -0.465369958946694 0 0 0
159 1 1 1.0280184549192795 -8.07161885220286 0.346748905028159 0 0 0
160 1 1 1.5797263251860796 -8.62119073558571 -0.22470315647594497 0 0 0
161 1 1 2.2081239736931897 -9.009812229344961 0.31645875191445705 0 0 0
162 1 1 2.0350916028514194 -8.60735341368478 1.15992251083969 0 0 0
163 1 1 2.1316750725688998 -8.00138653841346 0.40568264482192407 0 0 0
164 1 1 2.3008866019040894 -7.43578578249204 1.30116255007642 0 0 0
165 1 1 3.17733898717324 -7.70157605322078 1.04278887722423 0 0 0
166 1 1 3.79774656953337 -8.35946404273832 1.1922844215889898 0 0 0
167 1 1 4.0490838792330806 -9.08115628422725 1.86052679047612 0 0 0
168 1 1 4.60633323367522 -8.88970746243199 1.11885125751777 0 0 0
169 1 1 4.26755804805811 -8.35643866730874 0.354494455558234 0 0 0
170 1 1 3.96983008104103 -7.55493015642595 -0.03893617242458269 0 0 0
171 1 1 3.24814156496913 -8.26364301303153 -0.017748312729890976 0 0 0
172 1 1 2.82521651856112 -7.386307460346661 0.125307101962644 0 0 0
173 1 1 2.6924360742993794 -6.62946692477746 0.7229052331181021 0 0 0
174 1 1 2.92018986918218 -5.67399107297884 0.7794958127155059 0 0 0
175 1 1 3.3857938819484104 -5.33006719014554 0.02979646796522495 0 0 0
176 1 1 2.63691135987342 -5.79433077901386 -0.191548714793189 0 0 0
177 1 1 1.68840850365327 -5.630376552089981 -0.30603592498488696 0 0 0
178 1 1 2.14051913573313 -4.94161602222177 0.20005803610542294 0 0 0
179 1 1 2.71804192680388 -4.47504472491222 0.8916009830930169 0 0 0
180 1 1 1.99913663423011 -3.97901538160962 0.5342588460036128 0 0 0
181 1 1 1.4333972553424201 -3.27720697475208 0.9216586662335668 0 0 0
182 1 1 1.99241843228717 -2.63160861779413 0.3560190444482828 0 0 0
183 1 1 2.5124131344672005 -3.0412400943916698 1.1329370487341297 0 0 0
184 1 1 2.49368498700731 -3.0454393365497703 2.0781912518257295 0 0 0
185 1 1 1.5566197724805901 -2.81565218675056 1.9842650774146997 0 0 0
186 1 1 1.5518472068826499 -1.9033250898230702 2.2311174519239394 0 0 0
187 1 1 1.37375327473046 -1.24210046082571 2.8889787674170395 0 0 0
188 1 1 0.9074578238761771 -1.04152471342738 2.1412914600116593 0 0 0
189 1 1 0.18079923427476396 -1.5743692692375901 2.5959086925705694 0 0 0
190 1 1 -0.18926627942418905 -0.8319328378371629 2.122932174701399 0 0 0
191 1 1 -0.9911274557039531 -1.12493098520319 2.4386947625702793 0 0 0
192 1 1 -0.943008832858943 -0.36386399622710297 3.03923532849623 0 0 0
193 1 1 -1.23931332716303 -1.1214721776563799 3.5783951340334395 0 0 0
194 1 1 -2.1530848080397402 -0.7551238963121791 3.6001488019571397 0 0 0
195 1 1 -2.9656775078558795 -0.842368478164499 4.206829307329059 0 0 0
196 1 1 -3.2430665658077 0.025012565155002164 4.393522342448169 0 0 0
197 1 1 -2.6471234965321697 0.7737510892079109 4.501636028627469 0 0 0
198 1 1 -2.59290706292516 1.49908198331265 5.108952089422079 0 0 0
199 1 1 -2.3037800033502998 2.0825002993009902 5.803228514697689 0 0 0
200 1 1 -2.42932748062193 2.14922888447689 6.834530505137598 0 0 0
201 1 1 6.104769459891 6.5553805215155005 -3.70763295617392 0 0 0
202 1 1 6.88958740850994 6.726512258673 -3.20653899182595 0 0 0
203 1 1 7.830595700069409 6.75973086926968 -2.9987416561199396 0 0 0
204 1 1 7.41044334223753 6.59536868375699 -2.1302115505061496 0 0 0
205 1 1 7.50953713343665 5.8799111152605 -1.47562861755422 0 0 0
206 1 1 7.063632426017799 6.6667048294753 -1.10846998963346 0 0 0
207 1 1 8.00307421308883 6.95077152082983 -1.4079454825045499 0 0 0
208 1 1 7.90647100439694 6.55124646665252 -0.5467331239192179 0 0 0
209 1 1 8.82633034322525 6.45055630294109 -0.8219735675720179 0 0 0
210 1 1 9.063435606992359 7.28504391190014 -1.3526710678526102 0 0 0
211 1 1 9.88970303433149 7.094487384874 -0.9151314266862801 0 0 0
212 1 1 10.6723822221554 6.7458318435502695 -1.36870115242221 0 0 0
213 1 1 10.814225677521998 6.35582898156749 -0.502240524971537 0 0 0
214 1 1 11.174309656687901 5.5726149729875 -0.18860495064974203 0 0 0
215 1 1 11.543991070404 6.2507468917983795 0.40511498154916703 0 0 0
216 1 1 11.180367759802701 7.10481194348132 0.6408807313664879 0 0 0
217 1 1 10.504103781397902 7.450131842984099 1.2599329576329499 0 0 0
218 1 1 10.735962782468501 7.90223826278454 2.12170315080979 0 0 0
219 1 1 10.8015502034537 6.917796634056259 2.14826129872237 0 0 0
220 1 1 10.806840627693001 6.25178482867931 1.4098255029289999 0 0 0
221 1 1 9.939315601071671 6.543976263861901 1.62052592751434 0 0 0
222 1 1 9.190741925589803 6.75204002036922 1.00766498816944 0 0 0
223 1 1 9.043506630763472 6.15576789373153 1.7061251144107699 0 0 0
224 1 1 8.994697719669384 5.53066980528567 0.9756551434853409 0 0 0
225 1 1 8.967810768019223 6.09290551266305 0.20104968330551798 0 0 0
226 1 1 8.117530134748021 6.04412994202574 0.663693499022703 0 0 0
227 1 1 8.018537376088261 5.115961774646911 0.9148473747327021 0 0 0
228 1 1 7.9808928301993625 4.34557604885346 1.4644054900910202 0 0 0
229 1 1 7.168406792054232 3.8696424647943903 1.6769382655482599 0 0 0
230 1 1 6.493706557312233 3.40223541090152 2.17068575050403 0 0 0
231 1 1 6.3890778920109925 2.9391911733084704 1.30066166955615 0 0 0
232 1 1 6.286672840525882 2.96604503855559 0.31169566239591107 0 0 0
233 1 1 6.675522137253532 2.98585421529374 -0.606623577174549 0 0 0
234 1 1 5.717102646443932 3.26144916563231 -0.520158585585394 0 0 0
235 1 1 5.827270286169331 2.35087269724001 -0.34165167892419396 0 0 0
236 1 1 4.951045958924542 2.01023325927319 -0.544315925179838 0 0 0
237 1 1 5.226387403892662 1.7818443954290601 -1.40138458075859 0 0 0
238 1 1 5.989625198062841 1.43975222305527 -0.8992776349862959 0 0 0
239 1 1 6.7622474601946125 0.9435537930729442 -0.547444602965752 0 0 0
240 1 1 7.433694827698752 1.2974363117703898 0.005323774481583499 0 0 0
241 1 1 7.412124353393082 1.73270231788335 0.937884713703403 0 0 0
242 1 1 7.001953987220152 2.31922753513837 0.23719358946495794 0 0 0
243 1 1 7.0597471702169114 1.9877926894992097 -0.679535101529952 0 0 0
244 1 1 6.717750595092851 1.6843591858292801 -1.5268482189960502 0 0 0
245 1 1 6.567532879260742 2.0767281221085803 -2.39883434052921 0 0 0
246 1 1 6.421514744332822 1.73425716166751 -3.2494490654219197 0 0 0
247 1 1 6.3413094509164925 0.725529302148338 -3.3188579595732404 0 0 0
248 1 1 6.903953141576851 -0.021343922490622447 -3.23442562611202 0 0 0
249 1 1 7.194683978686632 0.36548991988738594 -4.04867820620955 0 0 0
250 1 1 7.8332974635521015 0.507331134635264 -4.81682476376633 0 0 0
251 1 1 8.233167002430262 0.28569499750342 -3.9646923153009506 0 0 0
252 1 1 8.004792411351792 1.20102342538143 -3.9154518932318503 0 0 0
253 1 1 7.260668123096221 1.02743073332647 -3.2679834155892795 0 0 0
254 1 1 7.363291463367871 1.9631359255200702 -3.51800525614924 0 0 0
255 1 1 7.539018608329782 2.4603014742129 -2.70001091566383 0 0 0
256 1 1 7.893345359297392 1.55643626745198 -2.67136872179819 0 0 0
257 1 1 8.093151051604721 1.06667443729993 -1.8774009071668702 0 0 0
258 1 1 7.270559513729612 0.5795669014996229 -2.01567607785835 0 0 0
259 1 1 7.738040664663622 -0.233195835209983 -2.3127688180106603 0 0 0
260 1 1 7.984147544626292 0.511450859735858 -2.87996660887386 0 0 0
261 1 1 8.868566602135912 0.643150350985447 -3.0645617050076606 0 0 0
262 1 1 9.436169750073782 0.14042693713514298 -2.5264933808776497 0 0 0
263 1 1 9.625442529719372 -0.02409216836917419 -1.63983356873328 0 0 0
264 1 1 8.78521481642077 -0.4294789314455051 -1.3733922216591101 0 0 0
265 1 1 8.235212131537661 -0.4304890113333571 -0.59744931271973 0 0 0
266 1 1 7.993457151628771 0.41243923793783593 -1.0143329248990602 0 0 0
267 1 1 8.401858295433483 1.20491674616904 -0.6970901121370671 0 0 0
268 1 1 9.079322610152511 0.793147046257088 -1.16057942483408 0 0 0
269 1 1 9.202353888854653 0.060054888422733654 -0.576439407680288 0 0 0
270 1 1 9.514188124360942 -0.7996455159341171 -0.35273426680338504 0 0 0
271 1 1 9.51749976056976 -1.26540628172848 -1.1596296017483798 0 0 0
272 1 1 8.729919284163993 -1.5430618126215903 -0.7316778816096451 0 0 0
273 1 1 9.479484345160682 -1.9712604848813502 -0.387314646635103 0 0 0
274 1 1 8.798171950904031 -2.2784339832218503 0.10001695418087103 0 0 0
275 1 1 9.143218736396252 -1.4579133106021598 0.384384681020048 0 0 0
276 1 1 8.564477272714303 -0.749815955343788 0.41002680061877905 0 0 0
277 1 1 8.378879150211743 0.208137649930638 0.41700192822658405 0 0 0
278 1 1 9.058856254272312 0.816040965775208 0.01746149018369897 0 0 0
279 1 1 9.932418793221972 0.873100327135202 -0.43640477167639696 0 0 0
280 1 1 10.684706495394503 0.36639642819364404 -0.005270549170244665 0 0 0
281 1 1 10.397998511585902 1.13949576352136 0.5478683625641061 0 0 0
282 1 1 10.9463978980677 1.6968713154730402 1.08916729261685 0 0 0
283 1 1 10.199254272189002 1.9029144383935 1.5646951482459799 0 0 0
284 1 1 9.473533012081493 1.6738363378673 1.0003089582615199 0 0 0
285 1 1 9.532527880634762 1.07118433813404 1.6810641649930802 0 0 0
286 1 1 9.732924920456382 0.6372519063399251 2.5326975133841403 0 0 0
287 1 1 10.666330073521202 0.558660400245119 2.7517130579030002 0 0 0
288 1 1 10.271412178683903 -0.31473424250845694 2.65977302091749 0 0 0
289 1 1 10.261541653963402 0.07614202164983119 1.74362784005042 0 0 0
290 1 1 9.977180594991111 0.07425849562953779 0.878192378675585 0 0 0
291 1 1 10.044830556986502 -0.7584822365681579 0.4721793240340871 0 0 0
292 1 1 10.509652902241701 -1.55699500258349 0.257394328337387 0 0 0
293 1 1 10.458594400431902 -1.63375642546936 -0.7034928012521691 0 0 0
294 1 1 11.031750465276103 -0.9281436048865451 -0.43697468323262395 0 0 0
295 1 1 10.369138507117201 -0.304402328001659 -0.732735692270568 0 0 0
296 1 1 10.645879457064803 0.43600964457215197 -1.3014985594988502 0 0 0
297 1 1 10.201534407368902 1.00190254053352 -1.9035156590774398 0 0 0
298 1 1 9.234297246050852 1.2840855158478899 -2.07362643504498 0 0 0
299 1 1 8.677283891903983 1.88217889879181 -1.59985405244984 0 0 0
300 1 1 7.749469892030322 2.19254476133016 -1.72002015103973 0 0 0
301 1 1 -9.222075943917812 -11.3569207493838 10.2600803603137 0 0 0
302 1 1 -8.66278093990739 -11.9452350023993 10.7909950542016 0 0 0
303 1 1 -9.26267893187955 -12.6821628353933 10.709888393108198 0 0 0
304 1 1 -9.17449611826656 -13.159587427663148 9.8409338189306 0 0 0
305 1 1 -9.6516356791427 -13.795424366080558 10.429481791247301 0 0 0
306 1 1 -10.245181811708699 -14.497237221623319 10.668318118403699 0 0 0
307 1 1 -10.509640663897999 -15.29160928879219 10.1810571740891 0 0 0
308 1 1 -9.68308752916401 -15.35801298367117 9.73605708879834 0 0 0
309 1 1 -9.33117010076756 -15.04382585761451 8.91701499902371 0 0 0
310 1 1 -9.35071296729362 -15.88855252045987 8.508004488281209 0 0 0
311 1 1 -8.861685934821711 -16.174809538457872 9.34247462079065 0 0 0
312 1 1 -8.67719494983722 -17.108390577744473 9.56518428243838 0 0 0
313 1 1 -8.86044356108036 -16.459623228270814 10.3113623470562 0 0 0
314 1 1 -8.53690377330197 -15.784703057191974 10.930161728380302 0 0 0
315 1 1 -9.05939508286556 -15.012503183895365 10.7272667134808 0 0 0
316 1 1 -9.47448717205663 -15.492786240048394 11.3936167990905 0 0 0
317 1 1 -9.96002233069449 -16.178120744482342 10.972053082187 0 0 0
318 1 1 -10.8809173048029 -15.958358984014883 10.9490164306964 0 0 0
319 1 1 -11.3558996325896 -15.185985175740022 10.7540155649878 0 0 0
320 1 1 -11.670413491116799 -15.264078252620413 9.81861561773465 0 0 0
321 1 1 -11.220305873921399 -16.102351915057962 9.496660529102538 0 0 0
322 1 1 -10.568995025769999 -15.403439222101603 9.21921843721949 0 0 0
323 1 1 -11.1433649668964 -15.585067024977764 8.434293420129661 0 0 0
324 1 1 -10.389594188790097 -16.208806609998593 8.45714653325515 0 0 0
325 1 1 -10.492388119663898 -15.741640824283243 7.613529567051129 0 0 0
326 1 1 -10.1031015099618 -15.057621442743763 8.12947908446221 0 0 0
327 1 1 -10.7087220887773 -14.341114589336502 7.79099086552485 0 0 0
328 1 1 -10.269063636738098 -14.623997641911972 6.98926909187237 0 0 0
329 1 1 -11.062060539769698 -15.082502580465704 6.801135153868341 0 0 0
330 1 1 -11.634809220379898 -14.624839029149083 7.4379564158113896 0 0 0
331 1 1 -11.510452393630496 -14.665547020723462 8.37469705348266 0 0 0
332 1 1 -10.905191678902499 -14.485752247273233 9.08293247699098 0 0 0
333 1 1 -11.633230632591099 -14.029446473736671 9.51849072859971 0 0 0
334 1 1 -12.4276857581715 -14.554155855797942 9.56938760581074 0 0 0
335 1 1 -12.643004809106598 -13.701441051205292 9.806931123676 0 0 0
336 1 1 -12.610530289787198 -12.861511715839521 10.242587473166699 0 0 0
337 1 1 -12.6576165632021 -11.922328879233303 10.2471798568426 0 0 0
338 1 1 -12.973795135562028 -11.176101814904902 9.91418612690894 0 0 0
339 1 1 -13.005337645533366 -11.900997331392302 9.32367842626817 0 0 0
340 1 1 -13.450127528435948 -12.763301464093702 9.19319841223764 0 0 0
341 1 1 -13.616040204566758 -13.400861099097973 8.5710163055204 0 0 0
342 1 1 -12.688968460071099 -13.335550954444912 8.71059020038786 0 0 0
343 1 1 -11.869756935131699 -12.807442742893903 8.788611883575031 0 0 0
344 1 1 -11.866375127457397 -12.022599599032102 8.19406491646255 0 0 0
345 1 1 -12.036302240531999 -11.971745084696803 7.23698114625772 0 0 0
346 1 1 -12.927711914340367 -12.128018029266402 7.569052532888009 0 0 0
347 1 1 -13.15825397248471 -12.699190331188902 6.836309427840379 0 0 0
348 1 1 -13.90614189148289 -12.140259549516001 6.66341097338541 0 0 0
349 1 1 -13.483175710045018 -11.7989541705507 5.87764434258742 0 0 0
350 1 1 -13.8257046750159 -10.962814891762307 6.1953447942461 0 0 0
351 1 1 -14.08293177296838 -10.149805819511306 5.82075536188616 0 0 0
352 1 1 -14.963883139794177 -10.424577603625105 6.02604188402143 0 0 0
353 1 1 -15.393305305223448 -10.862450290890806 6.7807394169377195 0 0 0
354 1 1 -16.203381184694216 -10.936235100756406 6.22131744887282 0 0 0
355 1 1 -16.096323190094015 -11.772291777177504 5.71212741180104 0 0 0
356 1 1 -17.046218037497496 -11.397798365781703 5.621174788167489 0 0 0
357 1 1 -16.733164428728948 -11.702216230434601 4.75816118524205 0 0 0
358 1 1 -16.798872614685 -12.404684894149202 4.07821276243516 0 0 0
359 1 1 -15.920043074410028 -12.332117610962701 3.85460967832329 0 0 0
360 1 1 -16.099701553234308 -11.893654724420202 3.03817491257379 0 0 0
361 1 1 -16.11767279704764 -12.218029377020303 2.1272148961006696 0 0 0
362 1 1 -15.847056631826298 -12.147216576893303 1.18412984024089 0 0 0
363 1 1 -16.34043929921289 -11.617993282245802 0.482310582241666 0 0 0
364 1 1 -16.44244068381325 -11.347229324405102 1.42624193397035 0 0 0
365 1 1 -16.90142483592973 -11.440003969926696 2.34801735588722 0 0 0
366 1 1 -16.9163386193405 -10.5975412030174 1.8576712536447 0 0 0
367 1 1 -16.222376244989142 -10.5108950027356 2.54149675790508 0 0 0
368 1 1 -15.636490822280432 -11.112988083176598 2.18317647494122 0 0 0
369 1 1 -14.737084918381413 -11.426543401477 2.19305707593876 0 0 0
370 1 1 -15.115526072645414 -11.7230491329093 3.0166164127348702 0 0 0
371 1 1 -14.784953601968594 -10.924753213231199 3.3122882724251603 0 0 0
372 1 1 -15.126518112159633 -10.039737622302699 3.23838159340005 0 0 0
373 1 1 -15.595200769144304 -9.730675258726778 2.44158482770665 0 0 0
374 1 1 -15.062520666983055 -10.3846905937931 1.9978784902163798 0 0 0
375 1 1 -15.342066560710165 -10.622185985014198 1.1285735626788702 0 0 0
376 1 1 -15.432758811415814 -9.8119010026117 0.6556461696172601 0 0 0
377 1 1 -15.090285017641087 -10.092094741816199 -0.24411111337661107 0 0 0
378 1 1 -14.461494369281725 -10.7040938841508 -0.7324354667195441 0 0 0
379 1 1 -13.935764373987077 -10.3965939532281 -1.44805278872271 0 0 0
380 1 1 -13.266268166239676 -10.688069422641 -2.06295500521638 0 0 0
381 1 1 -12.769013489097205 -10.8428481715655 -1.2817823858544999 0 0 0
382 1 1 -12.461443315465306 -11.3648150150576 -2.10452133964058 0 0 0
383 1 1 -11.997462658140705 -10.907149512068901 -2.8331047789329795 0 0 0
384 1 1 -12.827057271540205 -11.1013880682058 -3.21091215444085 0 0 0
385 1 1 -13.398685380985356 -11.8894283323818 -3.14451094243614 0 0 0
386 1 1 -13.893948153171387 -12.665557475737499 -3.45324137032974 0 0 0
387 1 1 -14.182001958949586 -13.05202388381299 -4.29820060316949 0 0 0
388 1 1 -13.226985666012718 -13.075928421036378 -4.15913528655411 0 0 0
389 1 1 -12.716818638322506 -12.273677608660698 -4.33658729244351 0 0 0
390 1 1 -13.448902880213176 -12.443011248880499 -4.923020807987969 0 0 0
391 1 1 -12.775598080363604 -12.506007479416198 -5.61588203674994 0 0 0
392 1 1 -12.258385405185505 -11.759090689009998 -5.921148602150401 0 0 0
393 1 1 -12.377689510242506 -11.643034965221899 -6.91984674782092 0 0 0
394 1 1 -12.794865082592905 -12.491001634420698 -6.99113519611104 0 0 0
395 1 1 -11.982417926818307 -12.6855787870638 -7.49553178035573 0 0 0
396 1 1 -12.475310771137005 -13.00789449197872 -8.23136882069097 0 0 0
397 1 1 -12.876241500503156 -13.59392967445276 -7.5935798216429005 0 0 0
398 1 1 -13.392203245558596 -14.334589839435289 -7.21263169537568 0 0 0
399 1 1 -13.947109437201977 -15.030725993542998 -6.75445420805601 0 0 0
400 1 1 -14.537185674323126 -15.644455203819108 -7.17486694990362 0 0 0
401 1 1 0.168361778423439 5.500886842172441 5.632549130672929 0 0 0
402 1 1 -0.19013976134623303 6.26266452842973 6.181888867838629 0 0 0
403 1 1 -0.796950136563538 6.9316869327205195 6.57182206664121 0 0 0
404 1 1 -0.8256750725030809 6.90558421121639 7.525215167868611 0 0 0
405 1 1 -1.44037008132465 6.28079010910143 7.18096382288453 0 0 0
406 1 1 -2.26026690253267 6.64461540783361 6.9542104508799305 0 0 0
407 1 1 -3.05151577301772 6.170942004854981 7.11659216250118 0 0 0
408 1 1 -2.7358522116311 5.93938231633365 7.95600072941805 0 0 0
409 1 1 -1.75332081007173 5.664690203187879 7.92830215920305 0 0 0
410 1 1 -2.15527845293759 5.40023209733734 7.111269815719321 0 0 0
411 1 1 -2.2418461337071003 4.70379673733594 7.72883412475229 0 0 0
412 1 1 -2.17480878448704 4.35361122389279 6.80406584377697 0 0 0
413 1 1 -2.41479019234177 3.947158719451 5.97836568034286 0 0 0
414 1 1 -1.6121611583811102 3.71285880088594 5.48914106190662 0 0 0
415 1 1 -1.8965805755650902 4.53277676877898 5.236044939872929 0 0 0
416 1 1 -2.58126689929687 4.030049795500189 4.8195836831945 0 0 0
417 1 1 -1.7283199929959898 3.8604962154772204 4.51530175160262 0 0 0
418 1 1 -1.74587938251986 4.748054646199151 4.285566444482891 0 0 0
419 1 1 -2.42504627477994 5.400490621604541 4.41142994222716 0 0 0
420 1 1 -3.1963500839327095 5.87858781638736 4.89768001339284 0 0 0
421 1 1 -3.26387692495736 5.96287627880204 5.83593678809079 0 0 0
422 1 1 -4.10304387668299 5.9825870118971505 5.26862259949411 0 0 0
423 1 1 -4.692956511809889 6.720371015244651 5.53222308100622 0 0 0
424 1 1 -4.524077763006599 7.22145598113505 4.72120417683784 0 0 0
425 1 1 -3.9136448067084504 7.776002153825309 4.2650827738699 0 0 0
426 1 1 -4.80676525520601 8.130426330021029 4.32794349769553 0 0 0
427 1 1 -5.5651627960100996 7.49055082980172 4.1878115335422095 0 0 0
428 1 1 -5.1309508390647105 7.6515571513288 3.3993744436022095 0 0 0
429 1 1 -5.82379587605711 8.22365191417537 3.47953829894496 0 0 0
430 1 1 -6.15049046682295 7.3518144096840405 3.3610659291451097 0 0 0
431 1 1 -6.88100853519789 7.7232175765720905 3.8140581786461003 0 0 0