Read Attempt, after unfolding 
20000 atoms
19900 bonds
0 dihedrals
0 impropers
1 atom types
1 bond types
-14.38424 14.38424 xlo xhi
-14.38424 14.38424 ylo yhi
-14.38424 14.38424 zlo zhi
0 0 0 xy xz yz

Masses

1 1

Atoms

1 1 1 2.69122361522596 0.687110089336164 -9.62514251616129 0 0 0
2 1 1 2.79453399337995 1.59091861291046 -10.01930627161 0 0 0
3 1 1 3.46740914367392 1.5550169180382298 -9.385459061686198 0 0 0
4 1 1 3.1752780985335396 2.46023146024908 -9.437665405961189 0 0 0
5 1 1 3.9389158419877797 2.5493564087740297 -10.0435090914204 0 0 0
6 1 1 4.50620260285596 3.14097247073471 -9.57718031139085 0 0 0
7 1 1 3.76321815836097 3.03634106366265 -8.85695381511404 0 0 0
8 1 1 3.5440979328884703 3.8196994940574998 -9.3288732676951 0 0 0
9 1 1 2.5852541651062597 3.7416275453332597 -9.14499896374582 0 0 0
10 1 1 2.10324000543201 3.44678579391145 -8.36557820146211 0 0 0
11 1 1 2.6266068182948197 2.88111120054691 -7.84670324638332 0 0 0
12 1 1 3.49302839597152 2.49797436950438 -7.8239468246282105 0 0 0
13 1 1 4.26262013635493 2.35473776742634 -7.27681407922426 0 0 0
14 1 1 4.906834570430361 2.31252423233025 -6.63875000253743 0 0 0
15 1 1 5.18506580387326 3.2906679569580297 -6.78087349180747 0 0 0
16 1 1 5.2931417595422 4.13348537225145 -6.36274535640081 0 0 0
17 1 1 4.54290981629107 3.7092284853731603 -5.928930469173781 0 0 0
18 1 1 4.46856975543057 3.5032600639269 -4.92861802312194 0 0 0
19 1 1 5.2379684926511105 3.8228295499644203 -4.45190416866879 0 0 0
20 1 1 5.287378415873509 4.31919977050632 -3.61057315942177 0 0 0
21 1 1 6.18443394664184 4.7174834541947 -3.39961621138624 0 0 0
22 1 1 6.58964703162246 5.46538918035513 -3.8566297635400097 0 0 0
23 1 1 7.219789436709419 4.79930558155026 -3.7571144438909103 0 0 0
24 1 1 7.65883920761338 5.65100291779078 -3.81612725156339 0 0 0
25 1 1 8.30981272005679 5.97234768567026 -3.1198709678896703 0 0 0
26 1 1 8.58599686099713 5.13524073812863 -3.6230660753675896 0 0 0
27 1 1 9.37931448015663 5.7061940472388395 -3.5127432590001297 0 0 0
28 1 1 10.1853523337008 5.25712313111132 -3.9322894258051604 0 0 0
29 1 1 10.7739904612641 5.10333938095464 -3.1885052421482794 0 0 0
30 1 1 11.2113923885053 4.24746616406597 -3.16078215450484 0 0 0
31 1 1 11.5468210045442 4.74131983244818 -3.88200070293293 0 0 0
32 1 1 11.8895579591558 3.86522424935646 -4.09638619452201 0 0 0
33 1 1 12.238506379779901 3.9703056981105695 -3.21937126684407 0 0 0
34 1 1 11.651344058558099 3.2286291772830404 -3.0597824846745403 0 0 0
35 1 1 11.267999630271499 3.3721531919270404 -2.14564930405654 0 0 0
36 1 1 10.9002153807298 3.57814261486734 -1.29656136868846 0 0 0
37 1 1 10.8694681685672 4.56113076345232 -1.38148046166783 0 0 0
38 1 1 11.757882830995099 4.12113389994812 -1.32984901242551 0 0 0
39 1 1 12.147969015181301 3.2778880677078597 -1.56489321164019 0 0 0
40 1 1 12.3371774934903 3.54658481422414 -0.63417574323133 0 0 0
41 1 1 12.600439988029402 2.5908351310592 -0.5759358783456371 0 0 0
42 1 1 12.392125412618599 2.05438854889434 0.14526220162069203 0 0 0
43 1 1 12.5870273927053 1.4696671624947601 0.9021758469414408 0 0 0
44 1 1 12.6799555593231 0.5506967839123149 0.600727009464093 0 0 0
45 1 1 13.5717968839873 0.503553654225874 0.215323515720465 0 0 0
46 1 1 14.0523400010654 0.670946130013771 -0.6453664940282631 0 0 0
47 1 1 14.572853069268803 0.116395729525969 -0.05127455948053783 0 0 0
48 1 1 14.369956234374602 0.4233662783887679 0.861936924352555 0 0 0
49 1 1 14.284417594683902 1.17982813877829 0.23675725896591282 0 0 0
50 1 1 14.333933091868202 2.0702066224195 -0.25578859435230716 0 0 0
51 1 1 14.162165540015101 2.91214305570164 0.2356657080430738 0 0 0
52 1 1 13.876181302389002 3.3496450260451502 -0.5364651136355663 0 0 0
53 1 1 13.609256505384101 4.01519411923855 0.059110358993953005 0 0 0
54 1 1 13.177918334923001 4.7920721816871605 0.19220752060639276 0 0 0
55 1 1 12.841496475222701 5.240369939461201 0.9702933258893067 0 0 0
56 1 1 13.053300560981501 4.37640880759539 1.5495176548062897 0 0 0
57 1 1 13.807806707741804 4.7974423940271 1.2428928042234098 0 0 0
58 1 1 14.380124163318403 4.56968777844964 0.47196576222695075 0 0 0
59 1 1 15.119754299947402 3.86998187174399 0.5221923917428608 0 0 0
60 1 1 14.894535589487102 4.03375472808486 -0.36977470317877226 0 0 0
61 1 1 15.425201565908901 4.70144642449264 -0.032332438707421085 0 0 0
62 1 1 15.981315472686603 4.48845643855056 -0.7739363794160783 0 0 0
63 1 1 16.614167683685103 3.7204552920388996 -0.4669845585568262 0 0 0
64 1 1 16.183869206245305 3.42940924520458 0.38552284329903874 0 0 0
65 1 1 16.555116447173905 2.54558608719884 0.3400083188964137 0 0 0
66 1 1 17.274081143183807 2.67577676778956 0.8979403594601368 0 0 0
67 1 1 16.450335659999503 2.761543340761 1.39737380938428 0 0 0
68 1 1 16.789921163806905 3.3565216223924303 2.08324533990241 0 0 0
69 1 1 16.882803863504304 4.16382192781151 1.67736456119401 0 0 0
70 1 1 17.8137151186082 4.225997311328181 1.16155782774547 0 0 0
71 1 1 17.2927150525093 3.6348773678123503 0.6124042402824829 0 0 0
72 1 1 17.7553065498093 4.16163650832926 -0.05690243019184038 0 0 0
73 1 1 17.6808002327432 3.59641041698942 -0.853624173792833 0 0 0
74 1 1 18.6114947181225 3.86541870924168 -0.7004914708295329 0 0 0
75 1 1 18.447519975614398 2.9945311893452597 -0.33018370060318797 0 0 0
76 1 1 18.5796651881798 2.03012723041609 -0.647240722054025 0 0 0
77 1 1 19.272023229800446 2.0214190301658 0.03461827383408256 0 0 0
78 1 1 19.192242028358116 1.27219026459727 0.6859666037587111 0 0 0
79 1 1 18.263200879848497 1.51089439235906 0.5428978990277861 0 0 0
80 1 1 18.150714519573796 0.5656718887587839 0.7471383387195909 0 0 0
81 1 1 17.992193251519193 -0.33454596886158905 0.7820113233420379 0 0 0
82 1 1 17.369670544324293 -0.9829594849176451 0.43745792728746297 0 0 0
83 1 1 17.889784238735793 -1.2085835042989501 -0.3433366905393221 0 0 0
84 1 1 18.71396379037749 -1.5447538645133003 -0.05095008641417392 0 0 0
85 1 1 18.98185108193185 -0.8332450738653552 0.5084192341601399 0 0 0
86 1 1 19.72834136512267 -1.41880878301066 0.42225517138157886 0 0 0
87 1 1 19.5936434794976 -2.28723072719995 -0.02004038042864853 0 0 0
88 1 1 19.18304688728408 -2.14691499247349 0.834940092246594 0 0 0
89 1 1 19.2379476995274 -2.70859278083911 1.64820211676134 0 0 0
90 1 1 19.22061646132272 -1.8346214978282902 1.94862562537274 0 0 0
91 1 1 19.9030601835979 -1.4892692949418203 2.57933283313305 0 0 0
92 1 1 20.37787225851986 -1.06948047919296 3.3569666076986198 0 0 0
93 1 1 20.67758381032345 -1.89692489788789 3.66065690830889 0 0 0
94 1 1 20.094986925142702 -1.9408637537975202 4.4540344460574195 0 0 0
95 1 1 19.562755330757472 -1.1367627323421499 4.758134532890191 0 0 0
96 1 1 19.2398302535631 -1.6720964134049299 5.533033158531031 0 0 0
97 1 1 19.25447024020367 -2.2641499225682202 4.8711482787447595 0 0 0
98 1 1 18.320572443869686 -2.4905741195347004 4.816850254619941 0 0 0
99 1 1 18.80238852473388 -2.7996358031241804 5.599142782716959 0 0 0
100 1 1 19.56602297434047 -3.20221367362377 5.215740691301599 0 0 0
101 1 1 18.81485517295736 -3.85691747279149 5.09455585386742 0 0 0
102 1 1 18.45633377596799 -3.87222718590492 5.97917180283862 0 0 0
103 1 1 17.54516000617579 -3.6923225792178305 6.25252310968935 0 0 0
104 1 1 16.69049744295979 -4.01534776396536 6.6146513782886505 0 0 0
105 1 1 15.82921784646279 -3.45409902625341 6.40400213045396 0 0 0
106 1 1 15.08239809067779 -2.87507051302175 6.320821606731191 0 0 0
107 1 1 15.514883994379291 -3.00498594562156 5.4813403236275 0 0 0
108 1 1 16.46500079803299 -2.65321109006502 5.61260881105981 0 0 0
109 1 1 16.21925427235839 -2.6389144753374 4.689015381077531 0 0 0
110 1 1 16.56999661376159 -1.78438716845655 4.433390502552481 0 0 0
111 1 1 17.156420165518988 -1.43964301844235 3.7912524513394397 0 0 0
112 1 1 18.03125144496829 -1.26596460117298 3.46373990705409 0 0 0
113 1 1 18.651702671049392 -1.3988631437789198 2.7370687667723597 0 0 0
114 1 1 19.353051854689223 -0.9658982932924759 3.1968671553881602 0 0 0
115 1 1 19.58674256691023 -1.8253353542638897 3.5705314698939596 0 0 0
116 1 1 19.10861878593672 -2.3647082749923998 2.86328096947104 0 0 0
117 1 1 19.815992528354606 -2.82650815017191 3.44316769407784 0 0 0
118 1 1 19.085819156426506 -3.3808759496811303 3.05944962898263 0 0 0
119 1 1 19.35434916553976 -3.9977150812262003 2.4025193235399303 0 0 0
120 1 1 18.516638608158985 -3.6386045217865495 2.0632290970026896 0 0 0
121 1 1 18.698405668861085 -3.52220188417607 1.11114599866995 0 0 0
122 1 1 19.339980953744057 -3.18256174462425 0.46660927075132197 0 0 0
123 1 1 20.116447770285795 -3.2338051460481805 1.08432532627321 0 0 0
124 1 1 21.011632263893556 -2.9487797632384902 1.27530295860719 0 0 0
125 1 1 21.277782808948746 -3.45858859415534 2.04125513109259 0 0 0
126 1 1 20.815773527048297 -3.43164946540918 2.91439086307975 0 0 0
127 1 1 21.737927913108916 -3.55775233831123 3.2496501013433905 0 0 0
128 1 1 21.207962117000946 -2.8534397978568196 3.73090367355577 0 0 0
129 1 1 21.415993292262556 -2.42883378745488 2.85378568294975 0 0 0
130 1 1 21.986630906955206 -1.81129020187297 2.3758924915481896 0 0 0
131 1 1 21.448278220972295 -1.01051110918236 2.38815968637439 0 0 0
132 1 1 20.896420127013926 -0.22839487435215 2.64719281888919 0 0 0
133 1 1 21.710338816053593 -0.07329084009578146 3.0932067933175897 0 0 0
134 1 1 22.080382293618683 0.37062666973226205 2.3629348325105197 0 0 0
135 1 1 22.896744521783663 0.519593842190396 1.85078912024113 0 0 0
136 1 1 23.65806130310382 0.5988691019612359 2.44273939402165 0 0 0
137 1 1 23.231467469495463 1.18162079701677 3.0790237358769397 0 0 0
138 1 1 23.54645921470498 1.7611048006573897 2.39948660575865 0 0 0
139 1 1 23.994855229102363 2.12152877502032 1.6074579512059701 0 0 0
140 1 1 24.073874841711394 1.3413366326859801 1.14920889713126 0 0 0
141 1 1 24.361860639724064 0.4477528519076339 0.9209988987004889 0 0 0
142 1 1 23.400928879539645 0.479506738989585 0.5637961996338511 0 0 0
143 1 1 22.651651616396464 0.9800381913321679 0.8711370519536009 0 0 0
144 1 1 23.159163324003313 1.71189771602779 1.0774560345086999 0 0 0
145 1 1 22.66463719128093 1.92595548961095 1.8519932769069098 0 0 0
146 1 1 23.09849412183409 2.7885783895197402 1.7393190160455 0 0 0
147 1 1 22.674429561773408 2.68796759928829 2.6232887987941496 0 0 0
148 1 1 23.136720616858078 3.56443828995892 2.49578110059614 0 0 0
149 1 1 23.58376971888989 4.3583785588025705 2.2093033484992004 0 0 0
150 1 1 23.54814083612226 4.97182475677866 2.95000704292889 0 0 0
151 1 1 23.66921779567125 4.1605414234617 3.38303661389144 0 0 0
152 1 1 24.365345694038893 3.69134500846461 3.01650803741732 0 0 0
153 1 1 23.894007458936784 2.8523908318361495 2.8644761064614905 0 0 0
154 1 1 24.475453505645095 2.86061400616694 2.10519088226042 0 0 0
155 1 1 24.125989200452576 3.63554520142766 1.7281346387239997 0 0 0
156 1 1 24.037804688059467 3.44586630170876 0.802055294918453 0 0 0
157 1 1 24.828825894606304 3.6009987239879195 0.16484721515905698 0 0 0
158 1 1 24.687401740837284 3.83981901208873 -0.717549286876476 0 0 0
159 1 1 24.376904358752924 4.779539806843941 -0.7853352982098 0 0 0
160 1 1 23.566032342399115 4.26830995605416 -0.7087335094602031 0 0 0
161 1 1 24.176454837509315 4.36045497955208 0.05880595690554635 0 0 0
162 1 1 24.966949864801965 4.88774094632258 0.10570538681123198 0 0 0
163 1 1 24.308845839910443 5.320314797812251 0.5886942514876751 0 0 0
164 1 1 23.891401549785414 6.15343594011759 0.887438967533827 0 0 0
165 1 1 23.487332077393106 7.00794715335684 0.9360957173863621 0 0 0
166 1 1 24.102128456398276 7.024991783538099 0.174832224732969 0 0 0
167 1 1 23.367944175328756 6.61425847314309 -0.23814492217647898 0 0 0
168 1 1 22.738935171994886 7.003189307962019 0.28681047498895407 0 0 0
169 1 1 22.278454761475015 6.77467831901052 -0.5545089188687641 0 0 0
170 1 1 22.466007231986065 7.7352989830307495 -0.46471998435888107 0 0 0
171 1 1 22.874351255266113 8.613299141730419 -0.35768187401208706 0 0 0
172 1 1 22.339367974861112 9.44974579423205 -0.37457447454644605 0 0 0
173 1 1 22.54803659505601 9.55042071316373 0.5979902156657599 0 0 0
174 1 1 21.94282321402345 8.86505750286165 0.8893777075886578 0 0 0
175 1 1 22.72228074698364 8.3728380337616 1.0449587333555899 0 0 0
176 1 1 23.622204097920278 8.10617071175067 0.841594454758832 0 0 0
177 1 1 24.326998031991227 7.59969175535704 1.2226728059658898 0 0 0
178 1 1 24.15430385033744 8.202310685449019 1.9157600477821601 0 0 0
179 1 1 24.466170399862897 7.330287298806749 2.2615141154365896 0 0 0
180 1 1 25.289087725528677 7.6943435116311205 2.58987476653737 0 0 0
181 1 1 25.293827605124328 7.248093157396481 1.74382327319651 0 0 0
182 1 1 25.30104107705245 8.1906520860801 1.36037116632043 0 0 0
183 1 1 24.68000315473947 8.61167674664488 0.866083625781648 0 0 0
184 1 1 24.82577956396959 9.487212017250881 0.392568617434057 0 0 0
185 1 1 25.71248913213129 9.36063710537161 0.813241313765287 0 0 0
186 1 1 26.25005929137731 8.632743870036599 0.5383045914908621 0 0 0
187 1 1 25.689523688385467 7.825386877086049 0.43127531452825896 0 0 0
188 1 1 25.068180740429508 7.084860999107421 0.5286272098609089 0 0 0
189 1 1 24.911561547615758 6.49978299093542 1.2917090840278 0 0 0
190 1 1 24.93573723561272 6.2383527723701295 2.24150626308428 0 0 0
191 1 1 25.80126069826368 6.53269472463638 2.03427037772649 0 0 0
192 1 1 26.365085426688978 7.00096282951672 1.4007096690382002 0 0 0
193 1 1 26.326912214986017 7.910702745622281 1.73285434605475 0 0 0
194 1 1 25.991660402953716 8.75729599096809 2.01919781368555 0 0 0
195 1 1 25.401814779910886 9.5453822387161 1.8348457948701102 0 0 0
196 1 1 25.988642477527357 9.78884896276627 2.5653200898577997 0 0 0
197 1 1 25.120890032341336 9.547623023001721 2.87520384812604 0 0 0
198 1 1 25.068889732701066 8.71505196322805 2.47173834186344 0 0 0
199 1 1 24.276528716489764 8.68011497711864 3.0894695478979397 0 0 0
200 1 1 24.634291365241303 9.159295478048369 3.86848358173263 0 0 0
201 1 1 8.19292757842037 -12.485484675887198 5.57969906798788 0 0 0
202 1 1 8.5443700451132 -12.050012651084002 6.32890595298709 0 0 0
203 1 1 9.27143119462597 -12.6046172100543 6.18700080452383 0 0 0
204 1 1 8.913628770404369 -13.3168249199522 5.66611845837942 0 0 0
205 1 1 9.35383453000803 -14.0039383733169 6.1375194599607 0 0 0
206 1 1 8.68884133406209 -14.752514902183 6.07357974971455 0 0 0
207 1 1 9.493721462798849 -15.277990007427498 6.28123560344553 0 0 0
208 1 1 9.11693129746376 -15.533627561502197 7.14155754755047 0 0 0
209 1 1 8.4985486135449 -15.556853487692498 7.8581592914180804 0 0 0
210 1 1 8.10576436601487 -15.388255223579197 7.001518018181139 0 0 0
211 1 1 7.720119407523151 -15.774340134242 6.15514885984948 0 0 0
212 1 1 6.80873602301712 -15.828139002707498 5.8529830324638095 0 0 0
213 1 1 5.87416161712258 -16.0425157227233 5.572725512813911 0 0 0
214 1 1 5.34965643715727 -15.2597982653151 5.456145635885449 0 0 0
215 1 1 5.57766343384571 -15.027423470672 4.55779453910531 0 0 0
216 1 1 6.3380405861693605 -15.262110044519 5.0419131285949 0 0 0
217 1 1 7.21923628497212 -15.1224860293299 4.87206737143626 0 0 0
218 1 1 8.07555983299418 -15.106274693722101 5.28021084880526 0 0 0
219 1 1 8.24964347704852 -14.1421128780983 5.281971806905481 0 0 0
220 1 1 7.632266224618079 -13.404201897618197 5.22232880944087 0 0 0
221 1 1 7.948006664227071 -13.5420743972258 6.15201593293992 0 0 0
222 1 1 8.69446062272237 -13.276525632868498 6.66274367920153 0 0 0
223 1 1 9.618227751180221 -13.303330507717197 7.03425035988989 0 0 0
224 1 1 10.1430307072521 -14.034002700401198 7.18327589815237 0 0 0
225 1 1 9.469509009077589 -14.1874228703379 7.883393686256619 0 0 0
226 1 1 8.89586266658223 -13.807249378787299 8.5185625871504 0 0 0
227 1 1 8.43998605507407 -13.882622882603899 9.340698771428231 0 0 0
228 1 1 7.899192054127799 -14.372411198587098 10.0426793183428 0 0 0
229 1 1 7.12356501117918 -14.647584141777898 10.6614034050354 0 0 0
230 1 1 7.244136201996829 -13.920042784876596 11.2794967559183 0 0 0
231 1 1 7.53626844467869 -13.976756883520297 12.213296282936401 0 0 0
232 1 1 7.27513922340819 -14.817547213957296 11.8036703333376 0 0 0
233 1 1 7.51929699276806 -15.567443935130797 11.271623179807198 0 0 0
234 1 1 8.22718977877401 -16.114329554403295 11.5185713997173 0 0 0
235 1 1 8.90512183806216 -16.554555246098296 12.0225114701945 0 0 0
236 1 1 9.25576291181938 -16.131903466043497 11.201932456224599 0 0 0
237 1 1 9.41775011666907 -16.383155730447896 10.325712193104698 0 0 0
238 1 1 10.1284598409839 -16.572441598777594 9.75634243284556 0 0 0
239 1 1 10.4620640145827 -15.851162588765796 10.3058250239759 0 0 0
240 1 1 10.0174287544711 -15.519694891006194 9.56526329862534 0 0 0
241 1 1 9.74617765447012 -16.087267849828994 8.823825613274831 0 0 0
242 1 1 8.84421404864609 -15.962158545771397 9.14126771428367 0 0 0
243 1 1 8.01478952443909 -15.421389027714495 9.19156642052467 0 0 0
244 1 1 8.73102197712724 -14.935640621020095 9.51305179560097 0 0 0
245 1 1 9.13852496829624 -15.037892465992496 8.658954754617259 0 0 0
246 1 1 9.74907685631638 -15.198836431870895 7.91825190432584 0 0 0
247 1 1 10.0866136628416 -15.065633319477897 7.0710681793819 0 0 0
248 1 1 10.869231512172698 -14.935452448091596 6.527229782936361 0 0 0
249 1 1 11.491328549184802 -15.676803546614297 6.56978185783181 0 0 0
250 1 1 11.5022463129046 -15.473758229835497 5.653371054038059 0 0 0
251 1 1 11.9891277294359 -14.725910915971095 5.948264435139719 0 0 0
252 1 1 12.401833917138902 -15.525983449189095 6.20381359994928 0 0 0
253 1 1 12.7434832626434 -16.23912980777809 5.6432598282647195 0 0 0
254 1 1 12.3036780095204 -17.132785615545192 5.494789232267441 0 0 0
255 1 1 12.3037490097416 -17.648688862939593 6.30139430440575 0 0 0
256 1 1 11.4775847822635 -17.206363790386195 6.35174345751812 0 0 0
257 1 1 12.2257374249134 -16.568130252171997 6.611125284835239 0 0 0
258 1 1 12.800510018872199 -16.972047383629693 7.29533455541763 0 0 0
259 1 1 11.908309912811902 -17.253413484256093 7.705653967096809 0 0 0
260 1 1 11.311897033536999 -17.800484578848593 7.250749703476339 0 0 0
261 1 1 11.9330749054602 -18.40171610373909 7.6249155955436505 0 0 0
262 1 1 12.043016866540599 -18.969375993078913 8.36368931999266 0 0 0
263 1 1 12.872760421286301 -19.15573346534964 8.041047795949941 0 0 0
264 1 1 13.305687885875301 -19.39198674047256 7.225103021544809 0 0 0
265 1 1 13.658825131565402 -18.798911941516348 6.55923530654932 0 0 0
266 1 1 14.0813268461611 -19.69801454211017 6.500667490930081 0 0 0
267 1 1 13.713592590900099 -20.61757003437814 6.66352408422814 0 0 0
268 1 1 13.136037117968499 -20.604201494140298 5.94456785670423 0 0 0
269 1 1 12.405816718233302 -21.00555316402873 6.377905119233639 0 0 0
270 1 1 11.9752222135532 -20.53625763650963 7.08065912833615 0 0 0
271 1 1 12.402624415002801 -21.081276702943942 7.7986570652227805 0 0 0
272 1 1 12.3599276168423 -21.88561699403803 8.296784382702741 0 0 0
273 1 1 11.655998502532599 -21.773710624964792 9.00881900458435 0 0 0
274 1 1 11.5034703477041 -21.765605514931593 9.9311116708689 0 0 0
275 1 1 10.624879552623199 -21.705834392897284 9.617427197626881 0 0 0
276 1 1 10.3252955304355 -22.014320516595685 8.78423530623353 0 0 0
277 1 1 9.4905712363912 -21.811341626479514 9.18401105040013 0 0 0
278 1 1 9.7969893640481 -22.269164792482236 9.96778907540175 0 0 0
279 1 1 10.068665401822999 -21.606758679578096 10.588806302053 0 0 0
280 1 1 9.318195709174939 -21.129937701738058 10.9272615938256 0 0 0
281 1 1 9.33430135119982 -21.66881699985562 11.780928871281901 0 0 0
282 1 1 8.6535815184188 -20.94244448650957 11.747730141208198 0 0 0
283 1 1 8.98976622567938 -20.966112051912777 12.6691363193011 0 0 0
284 1 1 9.679132585660382 -21.255406237048447 13.276635042599402 0 0 0
285 1 1 9.355009475804561 -20.431151898324586 13.5340658578221 0 0 0
286 1 1 8.997871763477429 -19.480954835208827 13.660730069654699 0 0 0
287 1 1 9.7136404595161 -18.93118370264665 14.0106599452472 0 0 0
288 1 1 9.43468136398257 -18.0415854353701 13.935737821000199 0 0 0
289 1 1 10.134145287508499 -17.399959263396997 13.586697367091801 0 0 0
290 1 1 10.9813478822152 -17.3085368726451 13.127581639980303 0 0 0
291 1 1 11.475156495959801 -17.9672433260713 12.747681381416 0 0 0
292 1 1 11.252635413657401 -17.3642591209274 12.060592332524399 0 0 0
293 1 1 11.2540016524826 -16.5092644165304 11.6650984748003 0 0 0
294 1 1 10.9027391978846 -17.2072760772668 11.1285101298393 0 0 0
295 1 1 11.2860446587965 -16.4624472226316 10.644823426605301 0 0 0
296 1 1 11.189739039828401 -17.1126086792843 9.95329962153078 0 0 0
297 1 1 10.7647780283622 -17.1255539026063 9.178018681721491 0 0 0
298 1 1 9.8312181762525 -17.190243092516596 8.98336376429853 0 0 0
299 1 1 10.3024213885675 -17.789362542214192 8.47432810496319 0 0 0
300 1 1 10.789485296275599 -18.617946514786894 8.29565828351367 0 0 0
301 1 1 10.7488747567625 -18.82069258092133 7.336143254998549 0 0 0
302 1 1 10.1625595672993 -18.16818724726739 7.16082635641962 0 0 0
303 1 1 9.98074317335581 -18.62780427822029 6.305310247418469 0 0 0
304 1 1 10.3651645284188 -19.53223893762261 6.47807521954825 0 0 0
305 1 1 9.9363305844245 -19.87617027346252 5.635183044497019 0 0 0
306 1 1 9.70620865928594 -20.31425041999831 4.80441399854965 0 0 0
307 1 1 8.994100543488221 -20.2243105324129 5.3972671342008605 0 0 0
308 1 1 8.39176684973042 -20.913504387129258 5.0262793147535705 0 0 0
309 1 1 8.70277627268143 -21.784016267243487 4.77753959746496 0 0 0
310 1 1 7.877248701646121 -22.098344751154706 5.01033302919849 0 0 0
311 1 1 7.833067726350019 -23.033279804310236 4.60114194219318 0 0 0
312 1 1 7.775229783175889 -23.961224751165105 4.50893754614383 0 0 0
313 1 1 8.35622808149614 -24.694690958442415 4.6045324502379295 0 0 0
314 1 1 9.06643551777119 -24.637547377281145 5.2412247586071 0 0 0
315 1 1 9.67267876614957 -24.482374188871084 5.99537716671912 0 0 0
316 1 1 9.47412967819019 -25.054565153668555 6.75609324083367 0 0 0
317 1 1 9.427167228846038 -25.171612006101057 7.72047501475487 0 0 0
318 1 1 9.38740322930256 -24.875816184501716 8.62378310876141 0 0 0
319 1 1 10.3889030426073 -24.861236319750127 8.51477204729497 0 0 0
320 1 1 10.4172477294276 -24.593443593366516 9.46159544009254 0 0 0
321 1 1 9.62964000144301 -24.213899040950494 10.011751334703801 0 0 0
322 1 1 9.856809585677839 -25.069480514954403 10.444952054745901 0 0 0
323 1 1 9.63031888711257 -25.495816255358733 9.6046524196975 0 0 0
324 1 1 8.90406181192097 -25.85022227043133 9.13488276079462 0 0 0
325 1 1 8.32825295908188 -25.68920756238966 9.93183631042657 0 0 0
326 1 1 7.385636523258929 -25.606542104258132 10.2128900516988 0 0 0
327 1 1 7.8494163077023495 -24.740032182609333 10.194433824492402 0 0 0
328 1 1 8.44473660990829 -24.656179772276715 9.428538051752131 0 0 0
329 1 1 8.43154299552508 -24.420151311377374 8.47919824181287 0 0 0
330 1 1 8.838131097084052 -24.019023174828583 7.6990367592229605 0 0 0
331 1 1 8.75000541699522 -23.080446216184534 7.81169510312086 0 0 0
332 1 1 8.61108853141845 -22.883288961303105 8.803296900588391 0 0 0
333 1 1 8.34916834939402 -23.122495578648085 9.67217303593934 0 0 0
334 1 1 8.50550691245584 -23.737809610862517 10.374751862620501 0 0 0
335 1 1 8.76353147774192 -24.658585289942227 10.477570809731901 0 0 0
336 1 1 8.55750753131589 -25.509905359281017 10.946455502632801 0 0 0
337 1 1 7.6280478692095395 -25.475883389910738 11.2009276321296 0 0 0
338 1 1 8.25961412970203 -25.350201354249048 11.916774369635698 0 0 0
339 1 1 8.47534924694868 -25.2754838916573 12.8421301351352 0 0 0
340 1 1 9.17765191805726 -25.101258133361007 13.4247438721859 0 0 0
341 1 1 9.95222693998624 -25.575621365420837 13.1412830474178 0 0 0
342 1 1 9.193120037958382 -26.111588312289367 12.9880659613013 0 0 0
343 1 1 8.918178436604919 -25.958256527098467 13.9506382518932 0 0 0
344 1 1 8.76240259651553 -25.15705446796432 14.463233219143401 0 0 0
345 1 1 8.67344722398413 -25.131657278165587 15.4031585300325 0 0 0
346 1 1 9.44426525454689 -24.651639170462285 15.035089125332101 0 0 0
347 1 1 9.2840981785707 -24.463984452239444 15.9513944213111 0 0 0
348 1 1 8.44571866271456 -24.703860877306884 16.292857865613 0 0 0
349 1 1 7.782277340986531 -24.806769742848083 15.658444670437902 0 0 0
350 1 1 7.73805632511745 -25.687373991679063 15.987856387565 0 0 0
351 1 1 7.4351069504720595 -26.565378250035874 16.0441832293718 0 0 0
352 1 1 7.100874522582389 -27.371031659596504 15.605867621905197 0 0 0
353 1 1 6.1949241142335705 -27.201798736769284 15.2491740160302 0 0 0
354 1 1 5.606088078033251 -27.938598793476046 14.940996494563 0 0 0
355 1 1 5.147660054268759 -28.00160960802088 14.092684421725197 0 0 0
356 1 1 4.883578484948281 -27.10048491737179 14.418255087815096 0 0 0
357 1 1 4.20805341896428 -27.502968492085742 13.868371941050695 0 0 0
358 1 1 4.51776651833963 -28.31759944200065 13.351941595114097 0 0 0
359 1 1 4.66685189484573 -29.042504458047755 13.990395657394597 0 0 0
360 1 1 5.47357955716602 -28.83981288600021 13.529720774046096 0 0 0
361 1 1 6.3276958230741 -28.40292068752233 13.506813241060096 0 0 0
362 1 1 6.42717461029979 -27.775975287692784 14.271397243585996 0 0 0
363 1 1 5.87519354174788 -26.97881398987301 14.113837720395297 0 0 0
364 1 1 5.5304078475237 -26.413232520669922 13.459271784514296 0 0 0
365 1 1 5.08379045131628 -26.49218817432133 12.593385358054595 0 0 0
366 1 1 5.6073561219499695 -25.73529951180562 12.479879076238799 0 0 0
367 1 1 6.089207189386291 -25.285252465642973 13.212991224815298 0 0 0
368 1 1 6.3686363058909 -24.910582094679853 12.340791546420196 0 0 0
369 1 1 6.58368051809502 -25.223863896210553 11.479533806214397 0 0 0
370 1 1 7.36167461475594 -24.749967247291494 11.819671560344897 0 0 0
371 1 1 7.962386473152041 -24.342887842415294 12.443632673202897 0 0 0
372 1 1 7.47060120643761 -23.554611605947215 12.572206002836696 0 0 0
373 1 1 6.70206085800116 -23.039322922944024 12.779910029600497 0 0 0
374 1 1 6.02861730118666 -22.546961679638734 12.380765763159195 0 0 0
375 1 1 5.7868992910272805 -23.438190296759863 12.234307819686398 0 0 0
376 1 1 5.33483211820892 -23.566084491687093 11.397585351764096 0 0 0
377 1 1 6.190892427433809 -23.146312435683303 11.084785521908396 0 0 0
378 1 1 5.44269717113538 -22.72252909247975 10.606125370961497 0 0 0
379 1 1 5.27710130370283 -23.59135405740372 10.164713085036697 0 0 0
380 1 1 5.850658147142191 -24.16942597644682 10.774536231858896 0 0 0
381 1 1 6.86685564336432 -24.16190156498563 10.763231304266297 0 0 0
382 1 1 6.8306775276185 -23.7744089605129 11.677514414283696 0 0 0
383 1 1 7.51443442734954 -23.14433555413881 11.502150674163897 0 0 0
384 1 1 8.014501761502071 -23.93749898204367 11.362816467058098 0 0 0
385 1 1 8.82751385899674 -24.46851492226521 11.497154417905197 0 0 0
386 1 1 9.09060644959231 -24.60413221004205 12.362443958257195 0 0 0
387 1 1 9.408674389912699 -25.34774353214836 11.937550367695996 0 0 0
388 1 1 10.0249028534413 -24.72161968749415 11.670410906577695 0 0 0
389 1 1 10.2487143234003 -23.82478550615178 11.818471985859997 0 0 0
390 1 1 10.4177180043322 -24.0563072314851 10.943607238589596 0 0 0
391 1 1 10.9318620723915 -24.87014222620923 11.069767613606597 0 0 0
392 1 1 10.9242037432232 -25.158066046396367 10.141078294982997 0 0 0
393 1 1 10.6134980112735 -25.730117862549907 9.467471469794257 0 0 0
394 1 1 11.3503348177043 -25.309377170347247 9.071395811039798 0 0 0
395 1 1 12.0320217479987 -24.705078313338177 8.956830452358327 0 0 0
396 1 1 12.6477210988629 -23.992423245982796 8.864530023830458 0 0 0
397 1 1 11.8961257102393 -23.777963005485233 8.286562852905437 0 0 0
398 1 1 11.9047538293287 -22.852424100988195 8.249589434412307 0 0 0
399 1 1 12.0923871608264 -22.816516617604414 9.188561086781467 0 0 0
400 1 1 11.8385763598342 -23.040456497983456 10.055864197439497 0 0 0
401 1 1 -10.485212908730698 -14.274410317903 -13.107310454981501 0 0 0
402 1 1 -10.179330458900198 -14.0945921244487 -13.9858447920751 0 0 0
403 1 1 -9.81176019447819 -14.3318418021104 -14.871978704274303 0 0 0
404 1 1 -9.19683455244911 -14.2586130135166 -14.182509059673903 0 0 0
405 1 1 -8.885399680376901 -15.0130261348609 -13.5817288671862 0 0 0
406 1 1 -8.43506298111218 -15.2169520300701 -12.707413792620502 0 0 0
407 1 1 -7.73075003665137 -14.8708912610871 -12.2258656326504 0 0 0
408 1 1 -7.13240646163905 -14.288689847559302 -12.679168353180804 0 0 0
409 1 1 -7.049493289360219 -14.9792013147191 -13.370603838493 0 0 0
410 1 1 -6.5015388281475595 -14.8115947855357 -14.114092893501901 0 0 0
411 1 1 -6.245006970622491 -13.8714127955393 -14.051297364561002 0 0 0
412 1 1 -5.8024717994154695 -14.152961274798301 -14.842695572042505 0 0 0
413 1 1 -4.983528614297031 -13.683448495729802 -14.800668376350904 0 0 0
414 1 1 -5.27556750314114 -12.989378467281899 -14.2004103823557 0 0 0
415 1 1 -5.283824883251981 -12.119672638434501 -14.541529989374103 0 0 0
416 1 1 -5.452339082251361 -12.682306821926 -15.263621856137306 0 0 0
417 1 1 -5.00033746184278 -12.698985205630699 -16.125204954703804 0 0 0
418 1 1 -5.8941439937417694 -12.679258773260301 -16.387538748319503 0 0 0
419 1 1 -6.086587575615519 -11.9596535494411 -15.754838281111805 0 0 0
420 1 1 -6.51975533079777 -11.3709187492669 -15.126871440389403 0 0 0
421 1 1 -7.45091498258396 -11.1598435490666 -15.344026511213004 0 0 0
422 1 1 -7.97201269992479 -10.582258385317001 -14.715130579805304 0 0 0
423 1 1 -7.2332261147929 -10.1696929622523 -15.175228529219504 0 0 0
424 1 1 -7.84030823799098 -9.579244905453619 -14.785468367472703 0 0 0
425 1 1 -8.42215387074635 -8.82969484075784 -14.669710504590306 0 0 0
426 1 1 -9.15851099053691 -9.427507567198528 -14.528922083182305 0 0 0
427 1 1 -8.93132050339817 -10.324509838811801 -14.255106716485805 0 0 0
428 1 1 -8.78904721786098 -11.138360209990099 -13.800740740475405 0 0 0
429 1 1 -9.06066222456881 -11.0230524961505 -12.906068731659305 0 0 0
430 1 1 -9.85781871214231 -10.8246477429426 -13.392344756674806 0 0 0
431 1 1 -10.19582402082 -11.157664680342 -14.215513042339307 0 0 0
432 1 1 -9.73585272351594 -11.9175155287867 -13.897690930733505 0 0 0
433 1 1 -10.533906893077301 -12.485973484369 -13.930474360040206 0 0 0