Read Attempt, after unfolding 
2000 atoms
1900 bonds
0 dihedrals
0 impropers
1 atom types
1 bond types
-6.676575 6.676575 xlo xhi
-6.676575 6.676575 ylo yhi
-6.676575 6.676575 zlo zhi
0 0 0 xy xz yz

Masses

1 1

Atoms

1 1 1 -1.7485252563431999 5.94669288525222 -4.33052094799492 0 0 0
2 1 1 -1.33791019362942 6.07192294959431 -3.37849281859597 0 0 0
3 1 1 -0.782168502718305 6.83280811649076 -3.59249943822369 0 0 0
4 1 1 -0.8963186735595079 6.79917399187529 -2.68211402265907 0 0 0
5 1 1 -0.9074502523587149 7.7273219345232 -2.37579881424318 0 0 0
6 1 1 -1.5413342144616002 8.33445247985347 -1.91054249044522 0 0 0
7 1 1 -2.0594498901030702 8.47304954155782 -1.1250463811395401 0 0 0
8 1 1 -2.26285118654328 9.34487060047502 -0.6387991718827328 0 0 0
9 1 1 -1.4551218874723997 9.6051375118641 -1.01871863123284 0 0 0
10 1 1 -1.21899002992162 9.569187798313742 -0.10474450258752 0 0 0
11 1 1 -0.624524563175766 8.981100976962932 -0.5366791020718851 0 0 0
12 1 1 -0.011887594405478374 8.369291220729892 -0.222001488843738 0 0 0
13 1 1 -0.017913644072696584 8.484914106434712 0.742500310777281 0 0 0
14 1 1 -0.6905147877403089 7.817729110644181 0.70941889941889 0 0 0
15 1 1 -1.2997501372947 8.285735216635631 0.11332236182731203 0 0 0
16 1 1 -1.96959405606044 7.796986586742341 0.632139303623078 0 0 0
17 1 1 -2.3319787470235096 8.315354265399131 -0.08001180125843277 0 0 0
18 1 1 -3.0143436963428503 7.890627961932331 0.49325938717944207 0 0 0
19 1 1 -2.72519352336667 8.71521025941864 0.9351353065282829 0 0 0
20 1 1 -3.14501936675582 9.0764069475538 1.67846849524652 0 0 0
21 1 1 0.07015770779696595 6.08808994938509 3.68895339092548 0 0 0
22 1 1 -0.683260737105718 6.73051763640248 3.8394937774354796 0 0 0
23 1 1 -0.28082704941506703 7.6190206340804405 3.5672598619682003 0 0 0
24 1 1 0.35506775574631805 7.146762123124269 4.16939305052248 0 0 0
25 1 1 0.685907006566793 7.594138450333099 4.95520851240755 0 0 0
26 1 1 1.5949493203823302 7.84196496643036 4.66722605484042 0 0 0
27 1 1 1.9836359577716398 8.241451913109678 5.42412230112773 0 0 0
28 1 1 2.65524436546086 8.29882930994987 6.08252185353454 0 0 0
29 1 1 2.6228768269534304 9.04334780624265 5.48232837963027 0 0 0
30 1 1 1.84707251929733 9.402037890927161 5.76519838610452 0 0 0
31 1 1 2.3627813573782404 10.02539191373863 6.21249134822337 0 0 0
32 1 1 3.1869833037689705 9.448081379776902 6.283281731895079 0 0 0
33 1 1 3.17488478057347 9.225421093619032 7.2329972682525385 0 0 0
34 1 1 3.45654439571992 8.390292546994703 7.638191619827839 0 0 0
35 1 1 2.57062742936502 8.356380093171701 7.166092684583458 0 0 0
36 1 1 2.0028499259538504 9.038362272209811 6.773915779374138 0 0 0
37 1 1 2.0206483262040997 9.807820591589522 7.373524792942859 0 0 0
38 1 1 1.11072339370792 9.472482856580822 7.4881843052700185 0 0 0
39 1 1 0.253538282025354 9.829247813047532 7.845709802112438 0 0 0
40 1 1 0.373136160340436 8.853621146591532 8.00611511587746 0 0 0
41 1 1 6.5168865002545 -0.604544377448726 2.61259949650642 0 0 0
42 1 1 5.731608036523241 -0.752611138115201 3.08677792791592 0 0 0
43 1 1 5.182931065463901 -0.8696321232625299 3.86073797234416 0 0 0
44 1 1 5.50733791686824 -0.008596584376078908 3.7620824015307 0 0 0
45 1 1 5.2449757859320805 -0.131325954205628 4.71475841014366 0 0 0
46 1 1 6.29347583902686 -0.138585272321184 4.82061822300026 0 0 0
47 1 1 5.97102249572044 -0.33293153205959003 5.70739310268137 0 0 0
48 1 1 5.04879477854267 -0.15784696294543202 5.993105465167051 0 0 0
49 1 1 4.632621615541019 0.6253572666659301 5.561918254904 0 0 0
50 1 1 5.2211023265755 1.3250241025954899 5.24318587382299 0 0 0
51 1 1 5.99095370378729 0.7671000642458791 5.38461097148489 0 0 0
52 1 1 6.78258151991317 1.2548210154382 5.5209820491626 0 0 0
53 1 1 7.441671981553369 0.683088739067637 5.08614887039072 0 0 0
54 1 1 7.392939571644999 -0.24408116018484005 4.82602508970343 0 0 0
55 1 1 8.134679156964598 -0.6093230116326012 4.35524841070466 0 0 0
56 1 1 8.134625162803058 -1.5272332159284 4.413493795573309 0 0 0
57 1 1 7.276651754399718 -1.3831150468956297 4.891393407986571 0 0 0
58 1 1 6.776698714641409 -1.1049079242059 5.67572099738891 0 0 0
59 1 1 6.46014906289394 -1.2514908515346899 6.528938857368 0 0 0
60 1 1 5.59431260659789 -0.9862677911250609 6.40198619400961 0 0 0
61 1 1 1.51633028537117 3.7725278088959198 -6.00189942652462 0 0 0
62 1 1 0.92838787237005 4.3706466912221495 -5.622071175164289 0 0 0
63 1 1 1.02420338871194 5.3136563944252995 -5.700769336137769 0 0 0
64 1 1 1.37362702510859 5.2357510178175 -4.81008570918627 0 0 0
65 1 1 2.1051419592728 4.83655730290219 -5.284134239817781 0 0 0
66 1 1 2.64753330868518 5.49761847125862 -4.96547573401798 0 0 0
67 1 1 2.19798099902211 5.05716066887058 -4.18629409348304 0 0 0
68 1 1 2.19338738755363 4.16658713294443 -3.71632400739214 0 0 0
69 1 1 1.9482086856386298 4.742849368010701 -2.9964289786801297 0 0 0
70 1 1 1.4163745054838797 3.9606893806421604 -2.7438257879004198 0 0 0
71 1 1 0.773710875222998 4.66347917498157 -2.86631737881607 0 0 0
72 1 1 -0.185054035275367 4.53797132795642 -2.76529910755194 0 0 0
73 1 1 -0.28209304786835604 4.834501117406 -3.72055270587313 0 0 0
74 1 1 0.22801817419540998 5.64243210700878 -3.95469776576039 0 0 0
75 1 1 -0.09132305363679288 5.92858402858224 -3.0541225365675597 0 0 0
76 1 1 0.571441831448688 6.02925990751367 -2.34208180017472 0 0 0
77 1 1 -0.110502514557973 5.72148975120492 -1.81545011487119 0 0 0
78 1 1 0.386578650017761 6.47602709581114 -1.2646971647996998 0 0 0
79 1 1 -0.299620291380345 6.17584035108605 -0.612667030094197 0 0 0
80 1 1 -1.25030432160802 6.603133676295821 -0.722083778279202 0 0 0
81 1 1 -5.426499277871059 -5.2460105520227405 -2.39273041527858 0 0 0
82 1 1 -5.2946003194074 -6.129820395661549 -2.1736278818325 0 0 0
83 1 1 -6.04660889149768 -6.104458788514591 -2.77210976419356 0 0 0
84 1 1 -6.8856127070004405 -6.1218382770641195 -3.26928775285592 0 0 0
85 1 1 -7.545017210369781 -5.538008285169769 -3.4453782557217996 0 0 0
86 1 1 -7.01095933797274 -5.76502003263513 -4.2621930721600805 0 0 0
87 1 1 -6.33233550693197 -5.10635776332258 -4.4290864884482595 0 0 0
88 1 1 -5.97711186688516 -4.246509705535121 -4.319730004900951 0 0 0
89 1 1 -6.33401765898067 -3.38742802015616 -4.59001537323413 0 0 0
90 1 1 -5.497692804926371 -3.01018139255669 -4.26769262073034 0 0 0
91 1 1 -5.33280727270915 -3.33827552347485 -5.15341045635926 0 0 0
92 1 1 -6.056532357263269 -3.96661778331275 -5.38295064039666 0 0 0
93 1 1 -6.96698819289431 -4.2838937227409 -5.30718268031338 0 0 0
94 1 1 -6.9642920060346905 -4.5360656222442595 -6.22381729077402 0 0 0
95 1 1 -6.378651900887459 -5.034098627503191 -5.61644001860204 0 0 0
96 1 1 -7.132840633656518 -5.31912883124042 -5.22126572343041 0 0 0
97 1 1 -6.391782615876619 -5.90221962712502 -5.02764584988187 0 0 0
98 1 1 -5.56181346193897 -5.80298425574902 -4.5809820796451195 0 0 0
99 1 1 -4.64804439895213 -5.45233526137907 -4.95963155004456 0 0 0
100 1 1 -5.1740765595699285 -5.08581444347906 -5.73115220096835 0 0 0
101 1 1 -6.11800614141537 -4.40438950303096 -0.156347082609251 0 0 0
102 1 1 -5.65326282712227 -4.00633264791382 0.577965647677861 0 0 0
103 1 1 -5.618652922800241 -3.0878590279644103 0.318778122396334 0 0 0
104 1 1 -5.491804414995201 -2.46352366839825 1.0621051590380302 0 0 0
105 1 1 -5.53207262928785 -1.5661377759991597 0.649467530566005 0 0 0
106 1 1 -5.47245322951136 -1.3655665791691203 -0.2754919960849399 0 0 0
107 1 1 -4.5586331702732 -1.38079571799038 -0.3853466951226419 0 0 0
108 1 1 -4.54060797431365 -1.4604361648177 0.6150893136918891 0 0 0
109 1 1 -4.01806177827613 -2.2580687487805697 0.7476443187303792 0 0 0
110 1 1 -3.74215008406726 -1.44772050082238 1.2660548122185302 0 0 0
111 1 1 -4.66533984818756 -1.4903569564595902 1.6246739648395905 0 0 0
112 1 1 -4.45334103916311 -2.41034417762988 1.6943129293278902 0 0 0
113 1 1 -4.65708061245836 -2.4702905726825297 2.643911518131371 0 0 0
114 1 1 -3.7627519124837403 -2.5952742904424397 2.93533500111459 0 0 0
115 1 1 -4.03411863635005 -3.45065122360392 3.18515343780244 0 0 0
116 1 1 -3.23144849876588 -3.5722456556766202 2.50205659219051 0 0 0
117 1 1 -2.8331097651792803 -3.5418531821001804 3.4137780279599803 0 0 0
118 1 1 -2.84515746788127 -3.96853754233585 4.27104474599002 0 0 0
119 1 1 -2.15370224028613 -4.12540690010716 4.93885018948209 0 0 0
120 1 1 -1.8630626836293 -3.3367716259943996 4.4839259438801395 0 0 0
121 1 1 1.10308359420587 -2.43557470327246 6.6716718431489 0 0 0
122 1 1 1.31612993471701 -3.3610781135661103 6.4533450895237605 0 0 0
123 1 1 1.49160814892977 -2.9356991213945403 5.59112098499029 0 0 0
124 1 1 0.718070411559836 -2.59385076172979 4.99832254643252 0 0 0
125 1 1 1.20476833386185 -2.21579672619972 4.3086687730114 0 0 0
126 1 1 1.81060817217921 -2.8480087929394298 4.54585581847084 0 0 0
127 1 1 0.978396453574518 -3.25326049166361 4.18949960923483 0 0 0
128 1 1 1.1786484796543402 -3.78224396810893 5.00038610316368 0 0 0
129 1 1 2.07498318785871 -4.00476152727881 4.590936141546321 0 0 0
130 1 1 2.78415386746056 -4.62672128681232 4.498074661407861 0 0 0
131 1 1 3.50138826837352 -4.45639837335683 3.90848385269869 0 0 0
132 1 1 3.71750735509975 -4.0082975837536905 3.0616293504742496 0 0 0
133 1 1 4.21903465985658 -4.1816148887834 2.27548452417678 0 0 0
134 1 1 4.04017970297743 -4.88013319875196 1.67745071417685 0 0 0
135 1 1 3.32330801539176 -4.32397617659758 1.45043065988216 0 0 0
136 1 1 2.84166803502476 -3.73216200215833 2.04984603222207 0 0 0
137 1 1 2.14436606963082 -3.9638914912548597 2.6446875168756603 0 0 0
138 1 1 1.72392922053069 -3.41287233759123 3.3274333019981004 0 0 0
139 1 1 1.46084711803545 -4.30710187915909 3.50621936794115 0 0 0
140 1 1 1.0330266509696 -4.7678348322992905 4.182972605602 0 0 0
141 1 1 0.11116563963495697 -3.74269197530477 3.8583015223829706 0 0 0
142 1 1 0.04010954349486262 -3.49451423449704 4.77695856755619 0 0 0
143 1 1 -0.137875586757181 -3.49888183932686 5.708620065660031 0 0 0
144 1 1 -0.650358484536304 -2.69368719230165 5.95418685237739 0 0 0
145 1 1 -0.7330222537928099 -2.55213305656812 5.08682916060205 0 0 0
146 1 1 -0.9824432612602461 -2.6139092478392203 4.08791008503071 0 0 0
147 1 1 -1.5440625566867099 -2.22769062326548 3.3861937975435903 0 0 0
148 1 1 -0.6580338674521379 -1.90689449692725 3.28178196621597 0 0 0
149 1 1 -1.0949761065313102 -1.6036787044714298 4.15862679392587 0 0 0
150 1 1 -1.93696700545982 -2.08172076893754 4.39499204559517 0 0 0
151 1 1 -2.72613921647619 -2.5796011061779303 4.572102324139809 0 0 0
152 1 1 -3.5029814278077995 -3.0613109926813196 4.18825543930992 0 0 0
153 1 1 -3.5248692280156897 -3.53662982825692 4.989907308715559 0 0 0
154 1 1 -2.7629961357532205 -3.26876498035196 5.51685234062711 0 0 0
155 1 1 -3.40346475214268 -3.73574001686822 5.971996050102769 0 0 0
156 1 1 -4.36337924504283 -3.53852667024885 5.683696728483289 0 0 0
157 1 1 -4.55806434407704 -4.43990656348954 5.95914792368646 0 0 0
158 1 1 -5.54239904139472 -4.4918384191275 6.10773526739308 0 0 0
159 1 1 -6.11227063377858 -4.25996968797907 6.79957355085577 0 0 0
160 1 1 -5.502840237242889 -3.6088750558594302 7.10594896061397 0 0 0
161 1 1 -5.136384642184231 -3.23260036193779 5.02752947122509 0 0 0
162 1 1 -5.54452970538782 -2.32154864428412 5.13265285621069 0 0 0
163 1 1 -5.58302014668853 -1.7855437141532 5.91894601403874 0 0 0
164 1 1 -4.67731992163428 -1.40307179322149 6.256957317176959 0 0 0
165 1 1 -3.96509533816393 -1.81262171061261 5.78465855133504 0 0 0
166 1 1 -4.39832203792209 -2.54662986840901 5.31707151976174 0 0 0
167 1 1 -4.868926978428201 -2.63068708557932 6.12494292494204 0 0 0
168 1 1 -4.41627802845419 -3.0067656244276697 6.893165531632828 0 0 0
169 1 1 -3.6420382052469997 -2.82246337994084 6.409923030404679 0 0 0
170 1 1 -3.34081146813389 -3.43722562007295 7.0930845767642285 0 0 0
171 1 1 -2.94754813860228 -3.62626141180014 7.902005297367898 0 0 0
172 1 1 -3.8653208523651403 -3.7093416347237005 7.979268402488097 0 0 0
173 1 1 -4.70704451236678 -4.20952443473283 7.925209369506847 0 0 0
174 1 1 -4.57076463442922 -4.576128770426791 7.032201827883948 0 0 0
175 1 1 -3.76918795102921 -4.34294204262002 6.675139876163217 0 0 0
176 1 1 -3.7294648957653 -5.2960091728278 6.5833816352391885 0 0 0
177 1 1 -4.12416718957416 -5.4854110839384695 7.415658272112708 0 0 0
178 1 1 -3.9085361919804003 -6.25536779457037 7.905748913591838 0 0 0
179 1 1 -4.30260390487809 -6.9869590075613885 8.332005599020619 0 0 0
180 1 1 -4.8742801627714405 -7.046527636111069 7.532580141301609 0 0 0
181 1 1 -3.6693591197577202 -3.42395596148569 1.5101158515555901 0 0 0
182 1 1 -3.25182007489238 -2.6418446997104303 2.02214992893183 0 0 0
183 1 1 -2.67878610919708 -3.17834858520608 1.5150103903044998 0 0 0
184 1 1 -1.76673693621226 -2.9329829661746003 1.7288959783911202 0 0 0
185 1 1 -1.96408111206963 -3.87871565856072 1.73974510985104 0 0 0
186 1 1 -1.0879063117281 -3.82439037181596 2.1846651789691602 0 0 0
187 1 1 -0.423464230677998 -4.4295963408253805 1.76567916223775 0 0 0
188 1 1 -0.08397116114753267 -5.081487154728371 2.29870439728367 0 0 0
189 1 1 -0.8492129117342049 -5.586767588154781 2.5708368480687596 0 0 0
190 1 1 -0.16232754037374997 -6.16306123549706 2.21061097594393 0 0 0
191 1 1 0.3449765282885331 -6.139059684714121 2.9812657123992996 0 0 0
192 1 1 1.02524021245904 -5.55782172868868 2.57990861193613 0 0 0
193 1 1 1.8297627014396398 -5.12664672440944 2.5473187529676897 0 0 0
194 1 1 2.05298794069345 -4.8431775693033305 1.57705887104683 0 0 0
195 1 1 2.89474402083743 -5.16028911048054 1.30244566675023 0 0 0
196 1 1 2.3568643793247204 -5.03873483999804 0.48795005311981887 0 0 0
197 1 1 1.6496585365243701 -5.62200910460996 0.866816764330077 0 0 0
198 1 1 1.7554359987377801 -6.00896304406775 1.77102717829204 0 0 0
199 1 1 0.806197663633136 -5.90247231747266 1.62614456326672 0 0 0
200 1 1 1.0516242400412301 -6.84504108881996 1.6619516745903602 0 0 0
201 1 1 2.33752525541624 -4.0085805615574195 0.931460193597712 0 0 0
202 1 1 1.92865883420474 -3.6679335589941604 1.71176928535941 0 0 0
203 1 1 1.5143611971381798 -3.1017702988447704 2.32838469329624 0 0 0
204 1 1 0.8805168464636229 -3.51172238920362 1.7764970409276 0 0 0
205 1 1 0.33656749674154895 -2.90333710905661 1.29064533184022 0 0 0
206 1 1 -0.16942124813109105 -3.6233290521086605 1.0261051467462299 0 0 0
207 1 1 0.264347786532118 -3.9427759425480597 0.218321188991627 0 0 0
208 1 1 0.905755234496086 -4.15468729350639 1.0338631010113002 0 0 0
209 1 1 0.696667558344688 -4.77499462301404 1.71496428708186 0 0 0
210 1 1 1.23322349227001 -4.3181203106730495 2.4417438387067003 0 0 0
211 1 1 0.36603065167183 -3.9603902789176804 2.7563907424971603 0 0 0
212 1 1 -0.39758463160760604 -4.46304615033539 3.02742334454753 0 0 0
213 1 1 0.47217429105612696 -4.96657429693928 3.31292348825405 0 0 0
214 1 1 -0.10551211324290011 -4.746194997317639 4.07061843688737 0 0 0
215 1 1 -0.2345633110251081 -5.36532951870333 4.82833314205721 0 0 0
216 1 1 0.4087667505569629 -4.60832837783681 4.96084136941518 0 0 0
217 1 1 0.406823412583551 -5.154473456211781 5.72039514025816 0 0 0
218 1 1 -0.48532493485923905 -5.203882767389031 5.952012027129889 0 0 0
219 1 1 -1.08476453211224 -5.01235563454612 5.18252077779968 0 0 0
220 1 1 -0.763116981415239 -4.1307920807065495 4.91925367073367 0 0 0
221 1 1 3.7384066929756097 3.8096358345328905 1.7399598888766599 0 0 0
222 1 1 4.08023902240928 4.04025906337838 2.6275199210465 0 0 0
223 1 1 3.2252786456092797 4.27823828917736 2.97546520416303 0 0 0
224 1 1 2.97099508278033 3.6412565062702 2.28964253685533 0 0 0
225 1 1 2.4309070049526 3.6122763600493997 3.13512487560691 0 0 0
226 1 1 1.55551189647679 3.32332662613662 2.76725284692893 0 0 0
227 1 1 1.87543301139511 2.83092859348045 3.5284025063175295 0 0 0
228 1 1 1.6558965451343999 1.9542663601169101 3.4925849349918403 0 0 0
229 1 1 1.03547003878635 2.4814340294895 3.9859904432592006 0 0 0
230 1 1 0.7686203711199829 1.50841419329052 4.0003043077820095 0 0 0
231 1 1 1.25394676971734 0.6429659659689151 4.16600715962206 0 0 0
232 1 1 0.388825381784914 0.39561369054606 4.65440099602325 0 0 0
233 1 1 -0.07375618997307853 -0.416294724692 4.7689580064285195 0 0 0
234 1 1 -0.5774551904055409 -0.793565441505972 4.03823379004958 0 0 0
235 1 1 -0.543807858619097 0.025010967925057415 3.7050325217328197 0 0 0
236 1 1 0.239398043075855 0.659182040696874 3.66105441435227 0 0 0
237 1 1 -0.44117508714754006 1.2990484209239 3.4891235736326403 0 0 0
238 1 1 -1.3613720157574902 1.23694201048447 3.5686058278973403 0 0 0
239 1 1 -2.16772295189472 1.29166873566884 3.96317662311363 0 0 0
240 1 1 -1.9604918682066899 2.24233100218981 3.9094503691743396 0 0 0
241 1 1 -6.4003998868489305 -0.938270702257057 -4.981906608854111 0 0 0
242 1 1 -7.34897546872279 -1.07705168252167 -5.22711322583516 0 0 0
243 1 1 -7.87282200681715 -0.37563125536780007 -5.52917172458813 0 0 0
244 1 1 -7.4035096416982 -0.06132533518767508 -4.73359486619803 0 0 0
245 1 1 -7.750488129003219 -0.41046652226409797 -3.9535169213511097 0 0 0
246 1 1 -8.52943086408624 0.0195647747390168 -4.35766391731799 0 0 0
247 1 1 -9.20967119016774 -0.3659478576062871 -3.8004377389610804 0 0 0
248 1 1 -9.59053426854795 0.48334102023608594 -3.5225217466207 0 0 0
249 1 1 -8.738657843733519 0.9397028028107849 -3.83339599651327 0 0 0
250 1 1 -9.301197677923609 1.3813227063895401 -4.454128668110901 0 0 0
251 1 1 -9.497880855293479 0.6308000446093089 -5.07945179839682 0 0 0
252 1 1 -9.6856128063126 -0.13156707864235506 -4.60551631385238 0 0 0
253 1 1 -10.6198354236606 0.05055894166784464 -4.46784240401517 0 0 0
254 1 1 -10.76826862418984 1.04584193716191 -4.23858978776451 0 0 0
255 1 1 -10.31821861920176 1.3262107174278401 -5.06260560579079 0 0 0
256 1 1 -10.5368735693316 1.8001044169161697 -5.901322337393559 0 0 0
257 1 1 -10.56596583839593 1.91239840784068 -6.856772448053459 0 0 0
258 1 1 -11.323859911437811 2.3873822491704 -6.649755186585519 0 0 0
259 1 1 -10.895825063431541 3.3112063021551603 -6.61214335724784 0 0 0
260 1 1 -10.264117632496362 3.35880095814963 -5.83161232005517 0 0 0
261 1 1 1.11873435768777 -3.67596763710495 -2.11441086337667 0 0 0
262 1 1 1.16122636970675 -3.9085582807277697 -1.1876037726372801 0 0 0
263 1 1 2.0534078665830298 -3.86522531392874 -1.34242559301469 0 0 0
264 1 1 1.87431792885871 -4.7265550949684005 -1.8209995396756202 0 0 0
265 1 1 1.23622578180408 -4.6882850926996795 -2.5585616189370803 0 0 0
266 1 1 0.9517711218811379 -3.9972025215594704 -3.23151956295271 0 0 0
267 1 1 0.25537516355798806 -4.03517942124834 -2.64100983246002 0 0 0
268 1 1 -0.616404177632795 -4.19589304483033 -2.32887155281138 0 0 0
269 1 1 -1.2583366148617499 -4.57650825252375 -2.9956723939451497 0 0 0
270 1 1 -1.8327091634442798 -5.21100277921143 -3.39276568565038 0 0 0
271 1 1 -2.09264644691135 -6.0923676098864 -2.9493530322162598 0 0 0
272 1 1 -1.8092904471461195 -6.947802101646369 -2.4434836373389 0 0 0
273 1 1 -1.1291196441219595 -7.089879013256349 -1.81548155334322 0 0 0
274 1 1 -2.0122683093826295 -7.13855079798877 -1.40209577694323 0 0 0
275 1 1 -2.1599487500790695 -7.5760074706362195 -0.586484527246057 0 0 0
276 1 1 -2.7418172357969093 -6.859600625129429 -0.41883966018659996 0 0 0
277 1 1 -2.3054828628387196 -6.05279724838537 -0.567864983997915 0 0 0
278 1 1 -1.3877586293627195 -5.703722697404129 -0.617348282391923 0 0 0
279 1 1 -0.4888271919191156 -6.004087403626291 -0.32373711212964396 0 0 0
280 1 1 -0.49509248108441667 -6.133905059645281 -1.25646396199977 0 0 0
281 1 1 -0.099948059726656 0.12118225605947999 -0.8414662956010329 0 0 0
282 1 1 -0.03768158260286558 -0.3433215844242291 0.0061441383661478 0 0 0
283 1 1 0.19125596698199998 0.4391042414147809 0.477189316688884 0 0 0
284 1 1 0.07574539445193372 1.2829450295100702 -0.06979826945594692 0 0 0
285 1 1 -0.656185574019575 0.9601794732357879 -0.599485637164792 0 0 0
286 1 1 -0.244512078919557 1.49102264726413 -1.3644978335539197 0 0 0
287 1 1 0.33109824792568293 2.1142280386303502 -1.8261190859395802 0 0 0
288 1 1 0.7745845464096679 1.89198233451776 -2.67701055190798 0 0 0
289 1 1 0.1891368751663809 2.16718623796468 -3.3814912580387997 0 0 0
290 1 1 0.6536943200748949 1.4627921035771998 -3.8060228983663196 0 0 0
291 1 1 1.5014456630190698 1.27106994195452 -4.28394241474787 0 0 0
292 1 1 1.1408076960179598 1.83031761525446 -4.92232345924966 0 0 0
293 1 1 2.12690443511672 1.8620075934462499 -4.86516192515415 0 0 0
294 1 1 1.82236271937563 1.50225660753811 -5.73095587360188 0 0 0
295 1 1 1.05380460982667 1.9846706024186498 -6.0792499856177695 0 0 0
296 1 1 1.6589911853488701 2.5464164232945 -5.57688280771829 0 0 0
297 1 1 0.816685951797529 2.7806469308394903 -5.117758557230831 0 0 0
298 1 1 1.36675574007026 3.02762346106975 -4.40462623253965 0 0 0
299 1 1 2.1642526433143403 2.57911823873001 -3.99204131229504 0 0 0
300 1 1 1.3825363131092803 2.4266222815272998 -3.45938671196391 0 0 0
301 1 1 2.14220678540183 0.728148015843225 -0.8979336744064571 0 0 0
302 1 1 3.11811819013976 0.60409971731885 -0.8873594826246519 0 0 0
303 1 1 3.2462580286000198 1.46921372149735 -0.49448444094433097 0 0 0
304 1 1 2.8482839560191295 2.1862938860654197 0.009880589022330355 0 0 0
305 1 1 3.67806572823849 2.39498956200844 -0.39076480637679495 0 0 0
306 1 1 4.24072831423935 2.5989575118794703 0.36251447223125005 0 0 0
307 1 1 3.7027747202571404 2.7886318199297295 1.10494942718603 0 0 0
308 1 1 2.8199630207051896 3.15513078955511 1.21969178209945 0 0 0
309 1 1 2.5486088850787403 2.27099966851287 1.2602277837601001 0 0 0
310 1 1 1.9136409326255601 1.6048836507498798 1.27610705835015 0 0 0
311 1 1 1.280642350725 0.8645196318110341 1.10426410123504 0 0 0
312 1 1 2.2100596892254303 0.5807070217573941 1.3089348186516 0 0 0
313 1 1 1.68994825136572 0.8237012322902522 2.05815567690006 0 0 0
314 1 1 2.4774176689416803 0.805775838412973 2.5691070026767404 0 0 0
315 1 1 2.92422653488937 1.45556654507466 1.9891954969553998 0 0 0
316 1 1 3.65604188708875 1.72377528390581 1.26740822580822 0 0 0
317 1 1 3.0212510082097404 1.1556825870132499 0.890966981583745 0 0 0
318 1 1 3.9158158207360096 0.8919311171488659 0.574651617178815 0 0 0
319 1 1 3.9900645499977303 0.6068936550201249 -0.35901423780473607 0 0 0
320 1 1 4.71757708994454 0.229695694763844 -0.870634947986557 0 0 0
321 1 1 -1.21582004181328 3.87130001410931 -2.5232427743617403 0 0 0
322 1 1 -1.39313318190652 3.6587202095113796 -1.61583900882611 0 0 0
323 1 1 -1.7023331166901001 3.16427940747912 -0.8004451615596441 0 0 0
324 1 1 -2.03239477988707 2.67042847487731 -0.05936821023654115 0 0 0
325 1 1 -2.97491894222688 2.82308991565818 -0.129150112297244 0 0 0
326 1 1 -3.32789665839652 3.17999560565723 -0.937199008013027 0 0 0
327 1 1 -3.4725853586701296 3.47847710692047 -1.8186919029163302 0 0 0
328 1 1 -3.28407439771813 3.1864541572199703 -2.6910504356509195 0 0 0
329 1 1 -3.36850289486692 3.57546657701537 -3.6437867316667796 0 0 0
330 1 1 -3.93033158741432 4.1449121098958 -3.2292488411660405 0 0 0
331 1 1 -4.61470803434866 3.4612074967515998 -3.0465319367981 0 0 0
332 1 1 -5.09830274502888 2.60520658531106 -3.1166617953709 0 0 0
333 1 1 -5.03381003727933 2.7591531272094603 -2.17227879981937 0 0 0
334 1 1 -5.05161832328617 3.11516675085005 -1.23636125688529 0 0 0
335 1 1 -4.60298980825384 3.37774836891187 -0.43783338648176295 0 0 0
336 1 1 -5.18997878152587 2.93743333456714 0.212044150180695 0 0 0
337 1 1 -5.9874580413661205 2.41364385192881 0.6078493013930389 0 0 0
338 1 1 -6.765549938275799 1.9095533455702498 0.343925953435091 0 0 0
339 1 1 -7.086267984638999 1.1174397926847 0.698190893777954 0 0 0
340 1 1 -6.897039194895529 0.07837295633810282 0.6801617264412729 0 0 0
341 1 1 -1.69075258594823 -6.09893724205876 -1.6493588093801201 0 0 0
342 1 1 -2.5490788747412796 -5.77236128877998 -1.92834942626303 0 0 0
343 1 1 -2.42375101019319 -5.02329152737977 -2.47311943069748 0 0 0
344 1 1 -3.0605736531751697 -5.48187718293688 -3.1401711340792398 0 0 0
345 1 1 -2.84351069937249 -5.989405206433001 -3.99806462575944 0 0 0
346 1 1 -3.4966496067872996 -6.683436362551361 -4.31229946237048 0 0 0
347 1 1 -3.63210720542615 -7.64137623660687 -4.1619818093555 0 0 0
348 1 1 -4.48050396059578 -7.99840844506733 -3.8770410378836604 0 0 0
349 1 1 -3.8412689962478 -8.678078580235091 -4.230405633970189 0 0 0
350 1 1 -3.98759490516002 -8.28855228149283 -5.09344323435654 0 0 0
351 1 1 -3.48571719077662 -8.94067612896102 -5.62010850298772 0 0 0
352 1 1 -2.5608549922195802 -8.853992432732781 -5.921748856105889 0 0 0
353 1 1 -1.84921883580988 -8.780080612245282 -6.545819124988741 0 0 0
354 1 1 -2.7051758417214002 -8.376668104295742 -6.969570962895819 0 0 0
355 1 1 -2.8559751000547897 -7.954105133905633 -7.767227884887499 0 0 0
356 1 1 -2.29083388236448 -8.653417553414693 -8.02929193341014 0 0 0
357 1 1 -2.33606043008996 -8.483855779750153 -8.966421909632569 0 0 0
358 1 1 -1.4574781208594298 -8.855118358833732 -8.750137873021078 0 0 0
359 1 1 -1.82969678563149 -9.696297436749772 -8.601760037751667 0 0 0
360 1 1 -1.02506357381381 -10.075486966165881 -9.034724687710778 0 0 0
361 1 1 -5.31667927363059 3.97089999183723 -5.90215953626672 0 0 0
362 1 1 -4.466831888625401 4.34440053002075 -5.664799515403709 0 0 0
363 1 1 -4.66960423057754 4.49903158021304 -6.61036840992259 0 0 0
364 1 1 -5.0252490609656695 4.86937342901868 -7.38065638072914 0 0 0
365 1 1 -5.79165486969335 4.63478854641842 -7.94472054488934 0 0 0
366 1 1 -5.046034413024651 3.97520846703828 -8.096111721246078 0 0 0
367 1 1 -4.4076932212883 4.63089710445049 -8.219355743062358 0 0 0
368 1 1 -4.0685001619394905 5.4411776463185 -7.926716953479177 0 0 0
369 1 1 -3.58086275234372 5.69505231612492 -7.159052116223679 0 0 0
370 1 1 -4.02722346660895 5.50251743080044 -6.32362196936551 0 0 0
371 1 1 -3.1008598028348198 5.5690400195048 -6.1411486940370095 0 0 0
372 1 1 -3.11524933285466 6.42313299116604 -5.65402892863173 0 0 0
373 1 1 -2.6093002039936097 7.01671158156774 -4.99846488467108 0 0 0
374 1 1 -1.8925841555248701 7.01907513209632 -4.30374062272188 0 0 0
375 1 1 -1.85193501016444 7.9578656519095485 -4.49228142215617 0 0 0
376 1 1 -2.32819810965711 8.54372828735845 -5.14765190157987 0 0 0
377 1 1 -1.7527708687051897 8.889571485730979 -5.85673404253076 0 0 0
378 1 1 -2.6858024973278902 8.770939363353168 -6.255417277479871 0 0 0
379 1 1 -3.31026126726615 8.417407194146929 -5.63906560914956 0 0 0
380 1 1 -3.17069131875131 7.979713116305899 -4.82881374865468 0 0 0
381 1 1 -6.12630932965745 2.18333409231734 3.12413744733698 0 0 0
382 1 1 -6.04065898379961 1.85000055014433 2.1969238096899097 0 0 0
383 1 1 -5.66824331483092 2.74811352293397 2.27118059098966 0 0 0
384 1 1 -5.16015223633494 2.10791183198982 1.7753039016588101 0 0 0
385 1 1 -4.2988103970453295 2.44530345026523 1.7281743430428897 0 0 0
386 1 1 -3.56675735380543 2.66695066503606 1.17949286604114 0 0 0
387 1 1 -3.9244789536192 2.89498177679963 0.33104403183352593 0 0 0
388 1 1 -3.95100761676304 2.52600635910122 -0.5720732887110691 0 0 0
389 1 1 -3.15182052132469 2.10153791931094 -0.8023833995963411 0 0 0
390 1 1 -2.46518055032448 2.60165476215403 -1.1685675450572703 0 0 0
391 1 1 -2.92951537669585 2.3276401414424503 -1.9456242024949002 0 0 0
392 1 1 -3.8320528242911696 2.45556524690054 -1.7418309922890103 0 0 0
393 1 1 -4.26081744769371 2.2574869917813998 -2.65095570069258 0 0 0
394 1 1 -3.9692458968468 2.36604449422873 -3.57200077224338 0 0 0
395 1 1 -4.34061434796718 1.53445750921204 -3.74902224338493 0 0 0
396 1 1 -5.26545760953792 1.5871017449907199 -3.5414293144323903 0 0 0
397 1 1 -5.724186225448509 2.3882150846041403 -3.94439776215033 0 0 0
398 1 1 -6.24293170577037 2.63103531449824 -4.64945511999452 0 0 0
399 1 1 -5.56104870383471 2.8432477580367594 -5.26761866833609 0 0 0
400 1 1 -5.5213180952379695 2.45047271982754 -6.15306192858521 0 0 0
401 1 1 -5.43824498940951 -2.15449889685738 -0.952583024303221 0 0 0
402 1 1 -6.13339246124418 -2.04632660381053 -1.53848494705377 0 0 0
403 1 1 -7.04489052296674 -1.81130402695844 -1.52634837465695 0 0 0
404 1 1 -7.91826518206282 -1.81469703336493 -1.0459198942038102 0 0 0
405 1 1 -8.81820862640336 -1.53831412622464 -1.09901545453513 0 0 0
406 1 1 -9.48611227879394 -1.9109207591953101 -1.65101613998763 0 0 0
407 1 1 -9.78574250469786 -2.09333309838732 -2.49783352670367 0 0 0
408 1 1 -10.194277181735979 -2.2575740342470403 -3.35142831309224 0 0 0
409 1 1 -10.544805582165889 -1.5043685020446202 -2.77950259602922 0 0 0
410 1 1 -11.283778875684618 -1.58443005212596 -3.3623691066842003 0 0 0
411 1 1 -11.690379376620207 -0.699351281704274 -3.36883677471898 0 0 0
412 1 1 -11.444581840758547 -0.20409659851105 -2.57372907729791 0 0 0
413 1 1 -11.238348722476047 -0.7959603838003421 -1.8468011067681798 0 0 0
414 1 1 -11.864949617582447 -1.46062142948255 -1.58427691282955 0 0 0
415 1 1 -12.232357398579907 -0.588061837433621 -1.49634892617334 0 0 0
416 1 1 -12.8513921753608 -1.31282399488613 -1.32262050207477 0 0 0
417 1 1 -12.85504095427951 -2.1407865498051 -0.8591809879244592 0 0 0
418 1 1 -13.644005808692912 -2.4474130576993103 -0.6024497076130451 0 0 0
419 1 1 -13.660665546933043 -3.15942243803682 -0.027935324069269463 0 0 0
420 1 1 -14.237023083302747 -2.47726878607829 0.251553052062254 0 0 0
421 1 1 -1.63953639117439 0.178219719553963 3.94825133018157 0 0 0
422 1 1 -2.30574656936115 -0.18331111954277898 4.51576549508827 0 0 0
423 1 1 -2.75528201378415 0.15851873832204202 3.8234184203576 0 0 0
424 1 1 -3.5323581478062898 -0.3449680347522369 4.19048665703823 0 0 0
425 1 1 -3.73817254630193 -0.10445610935573396 3.28345739555007 0 0 0
426 1 1 -3.9048328350192403 -0.634095819905443 2.58132282784827 0 0 0
427 1 1 -3.8101420426686206 -0.262430069331434 1.65073273141698 0 0 0
428 1 1 -3.06223697532407 -0.132293546170733 2.21205633312087 0 0 0
429 1 1 -2.74533178257742 -0.5864145714582011 3.03696868259952 0 0 0
430 1 1 -3.3582735804361006 -1.2298438621265 3.3972651483755203 0 0 0
431 1 1 -2.8567771205094905 -1.90734243534256 3.0290148684447598 0 0 0
432 1 1 -3.5220296215781897 -1.5997454710001902 2.3607563882332303 0 0 0
433 1 1 -2.762137512071 -1.14620294684128 2.12742300168467 0 0 0