Read Attempt, after unfolding 
30000 atoms
29900 bonds
0 dihedrals
0 impropers
1 atom types
1 bond types
-16.465845 16.465845 xlo xhi
-16.465845 16.465845 ylo yhi
-16.465845 16.465845 zlo zhi
0 0 0 xy xz yz

Masses

1 1

Atoms

1 1 1 -3.81630225744044 -9.61904746246068 -15.435827206569 0 0 0
2 1 1 -3.65582188892504 -9.02561442235195 -14.7159927053275 0 0 0
3 1 1 -4.60909382336862 -8.88896901037082 -14.543716362572699 0 0 0
4 1 1 -4.710236332350201 -9.73975723430766 -14.1053835419011 0 0 0
5 1 1 -4.1888566226537405 -10.4527976175614 -14.509681545260198 0 0 0
6 1 1 -3.69962983670466 -10.997400811459698 -15.1418906709499 0 0 0
7 1 1 -2.9972611953104003 -10.3180017042515 -15.1293657286788 0 0 0
8 1 1 -3.18623138613904 -10.3834241273615 -14.1782890964684 0 0 0
9 1 1 -2.48013587256819 -10.9920374050954 -13.983904366870599 0 0 0
10 1 1 -1.88920126472789 -11.6796648674304 -13.579530914614502 0 0 0
11 1 1 -1.53091689207134 -10.753818379266901 -13.648016067360402 0 0 0
12 1 1 -0.9407210824230501 -10.069016721053 -13.840268335482099 0 0 0
13 1 1 -0.681043004152711 -10.663389915465599 -13.1708520792925 0 0 0
14 1 1 -0.718790733026498 -11.520125451078698 -13.479302614145 0 0 0
15 1 1 -0.34080103543553597 -12.3311745507105 -13.583582480669598 0 0 0
16 1 1 0.13964376371367804 -12.9768355520585 -13.1037212897902 0 0 0
17 1 1 -0.492384347411967 -13.474934600188199 -12.505625417172402 0 0 0
18 1 1 -1.0015175722156697 -13.7959727719475 -11.764216511829698 0 0 0
19 1 1 -0.7464877637031538 -14.1224771838286 -10.8734996126319 0 0 0
20 1 1 -0.9000580837111527 -14.9982095688922 -10.4872481568694 0 0 0
21 1 1 -0.7682851928816288 -15.3475400849196 -9.603037461105382 0 0 0
22 1 1 0.01575158744900329 -15.838083499185199 -9.21119196529801 0 0 0
23 1 1 0.22195390507420124 -15.7428860823642 -10.1717008302225 0 0 0
24 1 1 0.8028158560596274 -15.5766248821064 -10.9593949005568 0 0 0
25 1 1 0.5280936100275013 -16.4251302181661 -11.2714494588868 0 0 0
26 1 1 0.4169010031005202 -17.375621888986903 -11.516859073973801 0 0 0
27 1 1 -0.3389558617995548 -18.048699968820504 -11.302255910085599 0 0 0
28 1 1 -0.012764977005058686 -17.842609968046805 -12.2379588902775 0 0 0
29 1 1 -0.44638769643864884 -17.079039698385905 -12.0471062009988 0 0 0
30 1 1 -0.26490480249038784 -16.0658071397396 -11.8518993235967 0 0 0
31 1 1 -1.09577702557984 -16.2730050569464 -11.4809063314362 0 0 0
32 1 1 -1.3282172439725 -15.9255808426929 -10.5142834296414 0 0 0
33 1 1 -1.76179323596369 -15.308761604547698 -11.1162804711777 0 0 0
34 1 1 -2.60121513706417 -15.066305214894099 -10.7164443237122 0 0 0
35 1 1 -3.3852831942540096 -15.5867368825179 -10.860443984595198 0 0 0
36 1 1 -4.34904231552644 -15.6261513002781 -10.7150884349757 0 0 0
37 1 1 -4.775413622758251 -14.976565365012501 -10.187307526910699 0 0 0
38 1 1 -3.80983504384596 -14.834581747344101 -10.0993921927038 0 0 0
39 1 1 -3.33762995965592 -14.1024281046948 -10.4060466054179 0 0 0
40 1 1 -3.15624617659814 -13.2246922367663 -9.937408146616 0 0 0
41 1 1 -2.6563319344969902 -12.8587894654018 -9.26053268530052 0 0 0
42 1 1 -3.1839894531724195 -12.0943024658695 -9.19049825206496 0 0 0
43 1 1 -2.8904361575106696 -11.788462088429599 -10.070662486462 0 0 0
44 1 1 -3.62870338224801 -11.458068880645198 -10.5381561340138 0 0 0
45 1 1 -2.7736938455793 -11.5327506819345 -11.0445977655271 0 0 0
46 1 1 -2.1455233140348997 -12.082489464082999 -11.574014454433101 0 0 0
47 1 1 -1.6454673189755202 -12.3669132167431 -12.3967868949295 0 0 0
48 1 1 -0.83925751090084 -11.859342438536197 -12.268959189449198 0 0 0
49 1 1 -1.23464749561104 -11.448578695757599 -11.509838502785302 0 0 0
50 1 1 -1.0282595784558102 -11.174179059942501 -10.6403696966119 0 0 0
51 1 1 -0.7756546037766479 -10.2189591843378 -10.6558108905549 0 0 0
52 1 1 -0.49176643939095 -10.728580628813198 -11.4143211191384 0 0 0
53 1 1 -1.1717582159665 -10.3851037365396 -11.984325626180901 0 0 0
54 1 1 -1.75014405176346 -11.1121663926919 -12.382506752458001 0 0 0
55 1 1 -2.59245521009704 -10.9198426438869 -12.851402305765099 0 0 0
56 1 1 -2.06325316103846 -10.0861620774521 -13.102541416976399 0 0 0
57 1 1 -1.6809509045258302 -9.31965320286108 -12.826950692856698 0 0 0
58 1 1 -0.8046969310182829 -9.151748126483461 -12.463485987709902 0 0 0
59 1 1 -1.3243597893505201 -9.248329319610221 -11.6200538583343 0 0 0
60 1 1 -2.0798124180767 -9.695574930589538 -12.025458778350801 0 0 0
61 1 1 -2.70030266134723 -9.042495988634961 -12.362635351970699 0 0 0
62 1 1 -3.10339126579359 -8.15775640703002 -12.4650255647226 0 0 0
63 1 1 -3.4368200655001897 -7.3777566258017195 -12.9133096007319 0 0 0
64 1 1 -3.64028662965657 -7.162366467717541 -13.814511498354198 0 0 0
65 1 1 -3.53652758438808 -6.8352685774855395 -14.706404876164699 0 0 0
66 1 1 -3.39419988314574 -6.1546541628924505 -13.9959331662791 0 0 0
67 1 1 -2.8848036591980297 -6.07228609341137 -14.8084665146714 0 0 0
68 1 1 -1.97920225909623 -5.7923051851655 -14.7068817993294 0 0 0
69 1 1 -1.23152158650618 -5.9408909876852 -14.0154436029656 0 0 0
70 1 1 -1.89836470100619 -6.1359705224702505 -13.413380158668803 0 0 0
71 1 1 -1.10232230315951 -6.1198028886805 -12.861241773144199 0 0 0
72 1 1 -1.06157919991609 -6.9949796912735 -13.1803910087709 0 0 0
73 1 1 -0.5412779023912101 -6.70147379846915 -13.934688314792302 0 0 0
74 1 1 -0.01828589075723741 -7.058103179707 -14.6206492023606 0 0 0
75 1 1 0.494606153701419 -6.328440739528849 -14.2950023109519 0 0 0
76 1 1 0.239289113768137 -6.10351568391671 -13.3760429550405 0 0 0
77 1 1 -0.2270932612916 -5.20247374667421 -13.2248926419964 0 0 0
78 1 1 -0.09170670317287133 -5.28350461168576 -12.274792695746601 0 0 0
79 1 1 0.428247926549862 -5.99289138559787 -11.891303942267301 0 0 0
80 1 1 -0.551471935456586 -6.09277021951897 -11.810592686932301 0 0 0
81 1 1 -1.06306654881159 -5.45749565807488 -11.279962712544 0 0 0
82 1 1 -0.7436671003723679 -4.96420441438054 -10.540951426112802 0 0 0
83 1 1 0.04620043124158357 -5.126462812809571 -10.099206762272098 0 0 0
84 1 1 0.44012347268765206 -5.812027202322531 -10.6286895323219 0 0 0
85 1 1 -0.22180566138899105 -6.43575336349877 -10.829584037583698 0 0 0
86 1 1 -0.5075946432643621 -6.3617387147651305 -9.91637263403651 0 0 0
87 1 1 0.04736839771306478 -5.98917708659258 -9.21245754452414 0 0 0
88 1 1 0.428235302063243 -6.843400614587241 -9.41729095194923 0 0 0
89 1 1 0.9077492379099681 -6.54001337212208 -8.61221062569214 0 0 0
90 1 1 1.34587781344475 -5.698901081846389 -8.63714777701433 0 0 0
91 1 1 0.9174872619129029 -5.25277578144341 -9.34879498187769 0 0 0
92 1 1 1.18980753052448 -6.04558402786345 -9.857241052596141 0 0 0
93 1 1 1.74986015436253 -6.26511369771726 -10.6000957480125 0 0 0
94 1 1 2.3119210848126803 -5.66004695820139 -11.1295813775842 0 0 0
95 1 1 2.59958350459286 -6.37160713304756 -11.6720328673671 0 0 0
96 1 1 3.02692596492433 -6.751063016511759 -12.4276461959755 0 0 0
97 1 1 3.74528403423026 -7.21289507917112 -12.8090627839153 0 0 0
98 1 1 3.83527322672363 -8.00095851659191 -13.379253840499699 0 0 0
99 1 1 4.2840860812535695 -8.51650397567584 -14.0381541893471 0 0 0
100 1 1 3.64189856800116 -9.25376707930119 -13.8656295843595 0 0 0
101 1 1 2.92410630418082 -8.80835366404605 -14.314427613163 0 0 0
102 1 1 2.29115463765904 -9.12585339378217 -14.9581312435414 0 0 0
103 1 1 1.87462438851702 -9.659546163380108 -14.263133247279901 0 0 0
104 1 1 1.64352427638961 -9.786706171192618 -13.337742736011501 0 0 0
105 1 1 1.20348973123724 -10.585230748262001 -13.567223385192198 0 0 0
106 1 1 0.5793437274504111 -10.283202798054802 -12.891436143048502 0 0 0
107 1 1 -0.23046565771212701 -10.0783696390054 -12.387253619238999 0 0 0
108 1 1 -0.10064830097618205 -9.631695483404721 -13.253766612472301 0 0 0
109 1 1 0.41857402725902293 -8.8022031194285 -13.209160135199802 0 0 0
110 1 1 -0.2657186970719111 -8.860997640561711 -13.9443242229039 0 0 0
111 1 1 -1.15821001531453 -8.607790613266049 -14.087649505577199 0 0 0
112 1 1 -0.7432535778469871 -7.94202278010211 -14.6046589583142 0 0 0
113 1 1 -0.476135939769712 -8.6984496498909 -15.0532676145537 0 0 0
114 1 1 0.500957043875232 -8.77713707594247 -14.9240851460125 0 0 0
115 1 1 0.71056371338571 -7.80894313761202 -15.0751266505789 0 0 0
116 1 1 0.646260489266325 -8.00475277209862 -14.1032937939734 0 0 0
117 1 1 1.05521933932863 -7.0941468143963595 -14.044308220885801 0 0 0
118 1 1 1.16223657652884 -6.7254801485682 -14.9299407101105 0 0 0
119 1 1 1.21487798030017 -5.82613768703238 -14.709200604841401 0 0 0
120 1 1 0.465871607699327 -5.2292747362136 -14.509273244814201 0 0 0
121 1 1 0.9908931885635792 -4.4994891913757495 -14.8703603026185 0 0 0
122 1 1 1.11618508727519 -3.8152674552977 -14.1626860786709 0 0 0
123 1 1 1.95087367242037 -4.20404098404184 -14.449024164049199 0 0 0
124 1 1 2.91619649455483 -4.12910567621035 -14.3679228995985 0 0 0
125 1 1 3.6042222894772404 -4.16731124458913 -15.0226599957917 0 0 0
126 1 1 3.97373774788843 -4.01239179744686 -14.140332606381198 0 0 0
127 1 1 4.14516816388444 -4.91987863540641 -14.238868949183098 0 0 0
128 1 1 4.5195836043333895 -4.68968965112149 -13.393090357577801 0 0 0
129 1 1 3.75285290871969 -4.56162209016634 -12.8613476701526 0 0 0
130 1 1 3.1312671666840397 -3.86483885512627 -12.767768548464598 0 0 0
131 1 1 2.51881684001397 -3.84859091151487 -13.4165186369382 0 0 0
132 1 1 1.9379958040268999 -3.03400740913153 -13.332501082383098 0 0 0
133 1 1 0.9267847934594007 -2.70255745059964 -13.5145010740574 0 0 0
134 1 1 1.10947616666637 -1.8454441554705603 -13.8145853750721 0 0 0
135 1 1 1.6872713908160097 -2.04991010174632 -14.557271545580699 0 0 0
136 1 1 0.9796618904858998 -2.68354669362298 -14.8075623446609 0 0 0
137 1 1 0.7385269964913769 -3.4789027578234903 -15.1849604341923 0 0 0
138 1 1 -0.20816399345732628 -3.15367113544775 -15.192687134268901 0 0 0
139 1 1 0.29191522065070374 -2.47309936378785 -15.7076654909638 0 0 0
140 1 1 1.1961768655292497 -2.67487715039947 -15.8766326307655 0 0 0
141 1 1 1.6300751403236498 -3.10698926577411 -16.6056714960377 0 0 0
142 1 1 1.7892823866615597 -2.92121960925632 -17.5620194255857 0 0 0
143 1 1 1.6931281542482899 -3.8686468442528903 -17.5354852388331 0 0 0
144 1 1 2.3182104651882396 -4.29934725203771 -18.0655162716082 0 0 0
145 1 1 1.5631871381990696 -4.41153680985583 -18.5415433625856 0 0 0
146 1 1 1.3800533237567096 -5.41174250107987 -18.620859127059198 0 0 0
147 1 1 1.5570090784088995 -5.36344056167313 -17.657355594046397 0 0 0
148 1 1 2.27701695377466 -5.75066095924214 -18.2324366356746 0 0 0
149 1 1 3.0906148043949297 -5.77670522852608 -18.7092608856576 0 0 0
150 1 1 3.2951102988617595 -5.89214796185495 -17.7681418667275 0 0 0
151 1 1 3.2023280205350897 -5.00740049938342 -17.3880694108604 0 0 0
152 1 1 2.9016429960039196 -5.69945283422966 -16.8273325352609 0 0 0
153 1 1 3.2017022763010092 -5.7510310933381295 -15.990938147162296 0 0 0
154 1 1 3.1593530194362494 -5.04218433266198 -15.331065697080694 0 0 0
155 1 1 2.6204241908465895 -4.29256522753344 -15.372664446400194 0 0 0
156 1 1 2.1070631317022195 -3.5255387727693903 -15.200227517720995 0 0 0
157 1 1 2.4361810083181092 -3.16501745244577 -14.317717593898395 0 0 0
158 1 1 3.3325825042923296 -3.2054574924312598 -14.673515652349195 0 0 0
159 1 1 3.679313046178779 -2.4870463939332597 -15.195148747310094 0 0 0
160 1 1 2.8543502705232098 -2.87148528054649 -15.538526065785096 0 0 0
161 1 1 2.1180929443998697 -2.2858600628908596 -15.601087247335993 0 0 0
162 1 1 2.88461335678897 -1.8320879972646698 -15.225216252404193 0 0 0
163 1 1 3.1114887775547397 -1.8254809798954499 -16.122126652647793 0 0 0
164 1 1 3.9404854580427298 -2.29338639438781 -16.09328594703599 0 0 0
165 1 1 3.921488766049149 -1.3833116610619 -16.501505169696497 0 0 0
166 1 1 3.9804704321234796 -0.486321965128482 -16.802136267915795 0 0 0
167 1 1 4.768200507326849 -0.09082363972626689 -16.423878328512597 0 0 0
168 1 1 4.452121965323969 0.710928525618836 -15.953284767936495 0 0 0
169 1 1 3.850531612022589 -0.06572881691399957 -15.933484521350398 0 0 0
170 1 1 3.037675254006279 -0.217521037985133 -16.461880101961196 0 0 0
171 1 1 2.275664881162919 -0.624603608324158 -16.016544865683898 0 0 0
172 1 1 2.361955040481129 -1.28444063034997 -16.720137346784 0 0 0
173 1 1 1.5490190186514492 -0.914583320572484 -17.044218262674597 0 0 0
174 1 1 0.8801189834164612 -1.47999102986819 -17.487705800796498 0 0 0
175 1 1 1.7611857420787191 -1.7328069784954199 -17.556953294310496 0 0 0
176 1 1 2.6128466043993788 -2.0072914172873797 -17.736782414594096 0 0 0
177 1 1 2.611950799610649 -1.00237102309674 -17.984797404272193 0 0 0
178 1 1 3.359466529241469 -1.25265930495645 -17.458423685051994 0 0 0
179 1 1 3.787621997726589 -2.12156925552127 -17.536627342220694 0 0 0
180 1 1 4.569685980019539 -2.14684411446115 -17.061326975664798 0 0 0
181 1 1 5.049800144418669 -2.09626336430875 -17.930307106001194 0 0 0
182 1 1 5.774690088570569 -1.64567528313552 -17.573080669724497 0 0 0
183 1 1 6.33589924414257 -2.3222566802334903 -17.849606151457397 0 0 0
184 1 1 7.201021049253269 -2.27291346202654 -18.194128562194198 0 0 0
185 1 1 6.739539980182929 -2.3619590821165297 -19.047119474031497 0 0 0
186 1 1 6.530710328206929 -3.2245817079051 -19.5497238167698 0 0 0
187 1 1 5.89854893945774 -3.6669012928374904 -19.0947927307975 0 0 0
188 1 1 5.961809694316669 -3.22335794361746 -18.289058357894497 0 0 0
189 1 1 5.855130050218269 -4.1852365271863 -18.0946094420136 0 0 0
190 1 1 5.908531719752249 -4.66722112053938 -18.999843967301302 0 0 0
191 1 1 6.128431110697268 -5.477425132886009 -19.4622713382739 0 0 0
192 1 1 7.0384444469698195 -5.6008638211615995 -19.1541104788405 0 0 0
193 1 1 7.741876753488539 -6.22422015769987 -18.942820910570603 0 0 0
194 1 1 8.26935325567602 -5.35768381195006 -18.828089144279204 0 0 0
195 1 1 9.20307500032378 -5.61419552712198 -19.082105121714605 0 0 0
196 1 1 9.07230433629435 -6.05410890283382 -19.884158747365205 0 0 0
197 1 1 8.21138782866727 -5.791212354196401 -20.267910306509705 0 0 0
198 1 1 8.18041111566381 -5.182353277464291 -21.018624964522807 0 0 0
199 1 1 8.09369728193714 -4.4174515746087595 -21.514087120078308 0 0 0
200 1 1 7.58384634137136 -3.6619245155797704 -21.27944427822481 0 0 0
201 1 1 7.8639584965121605 -3.1870684144985497 -20.43275399762461 0 0 0
202 1 1 7.68846114288571 -2.54228705453592 -19.71826165519131 0 0 0
203 1 1 8.52963803784488 -2.98913435016665 -19.694627697720108 0 0 0
204 1 1 7.9035050690430095 -3.3992456812085803 -19.080304956670908 0 0 0
205 1 1 8.426120703106411 -3.54509338830351 -18.24673085181291 0 0 0
206 1 1 8.82284081270079 -4.38715824793859 -18.57759287821531 0 0 0
207 1 1 7.83639118610167 -4.39812405046592 -18.54253272014681 0 0 0
208 1 1 7.67288611623536 -3.9993139272966403 -17.666941439649207 0 0 0
209 1 1 6.765410500448019 -4.173549843508851 -17.30865933443571 0 0 0
210 1 1 6.8421136233925495 -5.10611960094501 -17.230431705129313 0 0 0
211 1 1 6.38509318499807 -5.71879287350341 -16.61735661910141 0 0 0
212 1 1 7.17486721356416 -5.94368445318869 -16.065659985028912 0 0 0
213 1 1 7.847192890711759 -6.317885673419241 -16.62649721252141 0 0 0
214 1 1 8.24524882551768 -5.48197279292055 -16.81183257694271 0 0 0
215 1 1 8.40629903122436 -4.94915699443125 -17.66545553940461 0 0 0
216 1 1 7.5791468808699 -5.39851400586293 -17.974735249772415 0 0 0
217 1 1 7.821335390751321 -6.296074633253631 -17.928463247686516 0 0 0
218 1 1 6.92923170276832 -6.16781058158342 -17.627762719929216 0 0 0
219 1 1 6.550651436779269 -5.618066720127469 -18.246969143405018 0 0 0
220 1 1 6.11530783678959 -6.444282007003009 -18.23552761583482 0 0 0
221 1 1 6.41426184191265 -7.338484336835281 -18.49334826431862 0 0 0
222 1 1 5.80860773488983 -7.02355650089252 -19.15662560336202 0 0 0
223 1 1 5.327528449421901 -6.155303816919299 -18.99504086961192 0 0 0
224 1 1 4.89479106958715 -5.373464786792541 -19.144715886677822 0 0 0
225 1 1 4.9319451118132696 -4.61921163292072 -18.544260608646724 0 0 0
226 1 1 5.61832340386192 -5.25461186858545 -18.256327755070323 0 0 0
227 1 1 5.25131825289009 -5.96703015101828 -17.718263755337624 0 0 0
228 1 1 4.79476569857633 -6.580855346138929 -18.306748563296424 0 0 0
229 1 1 4.44830225934548 -7.320840207972161 -18.793611196265022 0 0 0
230 1 1 3.58192593130925 -7.4262156939355 -19.16562691531262 0 0 0
231 1 1 4.26883453378494 -7.59779532470562 -19.80906869415322 0 0 0
232 1 1 5.0487906474769595 -7.0916882011168 -20.06565011928542 0 0 0
233 1 1 5.77286813813718 -6.473335028415871 -20.15055924793602 0 0 0
234 1 1 5.80534830231471 -7.19556749925581 -20.77259187992242 0 0 0
235 1 1 6.04013703976305 -7.627189922335581 -19.877796609897217 0 0 0
236 1 1 6.76561854052341 -7.16335362002563 -20.269564531859217 0 0 0
237 1 1 6.95408681589424 -7.3154151563426195 -21.173912377137718 0 0 0
238 1 1 6.53364502919605 -7.6073188821566795 -22.04970193972742 0 0 0
239 1 1 6.18502763071483 -6.69236982045203 -21.95068879219862 0 0 0
240 1 1 5.7661180437386905 -6.18992249226627 -21.24906307584082 0 0 0
241 1 1 5.18187264048372 -5.45008044801876 -21.004130308084818 0 0 0
242 1 1 5.32242243731124 -4.9161494327237305 -20.214107116205817 0 0 0
243 1 1 6.0914540694286705 -4.988325138472231 -20.901850659480914 0 0 0
244 1 1 6.12693845682912 -4.23946706384073 -20.284873805807813 0 0 0
245 1 1 7.0089195213633 -4.16883766772705 -20.496811043808613 0 0 0
246 1 1 6.80979005777668 -4.86989996261251 -19.879296909504212 0 0 0
247 1 1 7.004014891038179 -4.14704467746496 -19.340026267048913 0 0 0
248 1 1 6.890298184981081 -4.0100630672501 -18.426197658094413 0 0 0
249 1 1 7.015734985574981 -3.26371798930828 -17.881395404821212 0 0 0
250 1 1 6.607831009489809 -3.0133759915880494 -17.010711884205513 0 0 0
251 1 1 5.6094476390098 -2.93232193551997 -17.176764355456214 0 0 0
252 1 1 5.038843600793809 -3.39280334227666 -17.829218738163714 0 0 0
253 1 1 4.675398911414651 -3.5269822784507996 -18.709630049087814 0 0 0
254 1 1 4.96676470722016 -2.64464216449798 -18.867162695226913 0 0 0
255 1 1 4.34792136133714 -1.9642792229456398 -18.60792590388301 0 0 0
256 1 1 3.37442039667472 -1.76523762388739 -18.624480754822613 0 0 0
257 1 1 2.7821775775718702 -2.5481390997549 -18.578676843370616 0 0 0
258 1 1 3.0212842078857003 -3.40915561878457 -18.232725254446315 0 0 0
259 1 1 3.88678792167823 -2.9295836550109304 -18.543060958647512 0 0 0
260 1 1 3.38702538153636 -3.20705855290227 -19.235696396796513 0 0 0
261 1 1 4.06362942935049 -2.92809288199984 -19.837565624393815 0 0 0
262 1 1 3.5244647876142596 -2.75411095257691 -20.60563969017421 0 0 0
263 1 1 2.56958541690704 -2.39849550934295 -20.686422624935112 0 0 0
264 1 1 2.53990629795345 -3.10999568789625 -20.08019454123351 0 0 0
265 1 1 1.6363542986936102 -3.33380132943609 -20.23283243835841 0 0 0
266 1 1 0.7811798180632471 -3.7500404582344 -20.06577871986991 0 0 0
267 1 1 0.535741637834832 -2.82318778450984 -19.93727733160501 0 0 0
268 1 1 1.2585196261678 -2.93898161395953 -19.29623928223461 0 0 0
269 1 1 1.80594366144467 -3.03046057906075 -18.541945305604706 0 0 0
270 1 1 1.7355022479829498 -2.09096057161263 -18.699391949129808 0 0 0
271 1 1 1.1911593233323101 -1.3607692773533202 -18.550000258156906 0 0 0
272 1 1 0.259402595458027 -1.20556853284669 -18.539962679138107 0 0 0
273 1 1 -0.618088196229946 -1.2267297600801201 -18.910616565119206 0 0 0
274 1 1 -1.27894102612365 -1.7525978829479099 -19.33559146711241 0 0 0
275 1 1 -1.19725695791037 -2.4056167578248195 -20.04212754071161 0 0 0
276 1 1 -0.387740978366093 -2.00136926250015 -19.67080269486641 0 0 0
277 1 1 -0.39082982706422303 -2.89489722276166 -19.27358732424801 0 0 0
278 1 1 0.23926077039668686 -3.2592139279229997 -18.696231351203814 0 0 0
279 1 1 0.6206121801887328 -4.06507408639499 -18.203777236998913 0 0 0
280 1 1 0.2862272138163529 -4.56368695252343 -18.978374362959613 0 0 0
281 1 1 -0.1636210496871121 -3.8979595251104597 -19.507906316627917 0 0 0
282 1 1 -0.4781918589575481 -4.56351459686001 -20.174357605758015 0 0 0
283 1 1 0.46508165667296786 -4.692427535720371 -20.345675691694016 0 0 0
284 1 1 0.02223439560975382 -4.5628014947184905 -21.141953361917018 0 0 0
285 1 1 -0.5243701636447751 -3.83466581788743 -21.123079884018516 0 0 0
286 1 1 -0.42687644675762115 -3.7953513700550197 -22.111405662982513 0 0 0
287 1 1 -0.2759415919348421 -2.8259341195754097 -21.912292722300414 0 0 0
288 1 1 -0.3072160859916341 -2.59026808179061 -22.80093335650801 0 0 0
289 1 1 -0.14114597917068708 -3.3414423773550896 -23.36424040749032 0 0 0
290 1 1 -0.9881990649980321 -3.7563945635096605 -23.09872211468415 0 0 0
291 1 1 -1.09905146753005 -2.7735530136962003 -23.398657715911618 0 0 0
292 1 1 -1.8662488904722199 -2.66261012215748 -23.973806055443518 0 0 0
293 1 1 -2.0244877473120098 -2.02473579195455 -23.188557259476948 0 0 0
294 1 1 -2.79009834354936 -1.5193317683507401 -23.45009688274488 0 0 0
295 1 1 -3.46283721146748 -0.873785384452086 -23.591613482872518 0 0 0
296 1 1 -2.82265754771083 -0.7603497623444079 -24.3719726437374 0 0 0
297 1 1 -2.8912879060409 -0.49313797123345005 -25.25618683880672 0 0 0
298 1 1 -3.5806851524741603 -0.960873655010193 -25.79609490732783 0 0 0
299 1 1 -3.6728896355544705 -0.30468443152006197 -26.4993760233823 0 0 0
300 1 1 -4.45895893625758 -0.24921240474846193 -25.99159063809488 0 0 0
301 1 1 6.730091745507781 7.73332233546203 0.37717325287371 0 0 0
302 1 1 6.57288586351045 8.1718824476542 1.20651424926206 0 0 0
303 1 1 7.48221276653054 7.987081946927919 1.23570598716871 0 0 0
304 1 1 7.34349156067138 8.186052804102841 2.1705859509244902 0 0 0
305 1 1 8.0555692497446 8.451148328010241 2.81241061485738 0 0 0
306 1 1 8.43893479446118 8.083400807288509 3.60681593943323 0 0 0
307 1 1 7.99418962614516 7.341394867729889 3.2230165579930894 0 0 0
308 1 1 7.42058492473168 7.92428850004676 3.68034629191011 0 0 0
309 1 1 6.6738791531395 7.42127298299703 3.28490300641226 0 0 0
310 1 1 7.26527398091511 6.8750685862067 2.715308783136 0 0 0
311 1 1 6.704084413970669 7.2700269517625 2.0073978889010804 0 0 0
312 1 1 5.96298679736765 7.11133083575776 2.5953947677116602 0 0 0
313 1 1 5.203607026158741 6.48340102085663 2.7469344973351197 0 0 0
314 1 1 5.6544292930778495 5.76698293178897 3.1222555909256804 0 0 0
315 1 1 6.48420595303158 6.159195230873669 2.88699068700117 0 0 0
316 1 1 6.81397720146703 5.515355520329731 2.32037650632027 0 0 0
317 1 1 5.95933280604159 5.686641372853509 2.05608600931232 0 0 0
318 1 1 6.5527071630136104 6.363882162301691 1.7114851670278999 0 0 0
319 1 1 7.07330667434072 6.9251354274587404 1.04342654664874 0 0 0
320 1 1 7.7408388903639995 7.335279513855901 0.4637090083114399 0 0 0
321 1 1 7.74528332196605 7.23923152470218 -0.4583673098019331 0 0 0
322 1 1 7.25073281055082 8.03707028963997 -0.5958327424371279 0 0 0
323 1 1 6.48660741383052 7.71352099535191 -1.07769607584534 0 0 0
324 1 1 5.50591939446424 7.72177535106776 -1.36814711704404 0 0 0
325 1 1 5.24870574994696 8.2262477169408 -2.1348980713478602 0 0 0
326 1 1 4.29982395545493 8.02367741420152 -1.9733055847376102 0 0 0
327 1 1 4.17374463675116 7.13183534968228 -2.2581466857877297 0 0 0
328 1 1 5.0931348266882495 7.05779178850361 -1.93599853661412 0 0 0
329 1 1 4.41414515299666 6.617478367434981 -1.39452140969704 0 0 0
330 1 1 5.233635664840129 6.674178854652901 -0.91085523552619 0 0 0
331 1 1 4.66500539298336 6.91983945670862 -0.16596747380633303 0 0 0
332 1 1 4.17923390226347 6.10795961528952 -0.392240035903065 0 0 0
333 1 1 3.83303910797818 6.47511482808974 0.512268350702321 0 0 0
334 1 1 4.21519857570473 6.482652155961519 1.39303747614478 0 0 0
335 1 1 4.91962289217639 6.93859121872772 1.85080000137165 0 0 0
336 1 1 4.1404547977734 6.71937386600695 2.3897075240725 0 0 0
337 1 1 4.08837017833206 7.64036205373712 2.21422445356854 0 0 0
338 1 1 3.23233902107894 7.227323653824531 2.2710305431634903 0 0 0
339 1 1 3.4141171793960297 7.897287742744731 3.0316875361817504 0 0 0
340 1 1 4.26174894451773 8.12042788639924 3.29184616657693 0 0 0
341 1 1 4.34984113026759 8.66322210282337 4.12985951440495 0 0 0
342 1 1 4.945555002131219 7.9236598283955395 4.1083381464439395 0 0 0
343 1 1 5.195250649262411 8.6223619113307 3.4562217493986 0 0 0
344 1 1 4.58264839674309 9.343792037285679 3.1166078148590697 0 0 0
345 1 1 5.15491187148982 8.91308620947011 2.43950959075737 0 0 0
346 1 1 4.72846978780418 9.66359794709566 1.96785017749158 0 0 0
347 1 1 5.210620760249519 9.04856437150814 1.36999438920426 0 0 0
348 1 1 4.49186197933277 8.36822051681589 1.3265787367158601 0 0 0
349 1 1 3.9918719155881 7.483301382433259 1.02875782020806 0 0 0
350 1 1 3.0843295279853797 7.5526540410634295 1.00777962704548 0 0 0
351 1 1 3.06776395596345 7.10824307548954 0.1847172279121061 0 0 0
352 1 1 2.7847171098964703 6.19573911545132 0.16681159633492407 0 0 0
353 1 1 2.8920337588168996 5.5397253871267305 0.819915912290373 0 0 0
354 1 1 3.72453537162463 5.2806893813422 0.426604899727671 0 0 0
355 1 1 3.1644870243769003 4.90018998923307 -0.237473720190025 0 0 0
356 1 1 2.20822137555125 4.73609144031676 -0.287432770724667 0 0 0
357 1 1 2.32754639570589 5.17981920858383 -1.1553372774308 0 0 0
358 1 1 1.97349963549669 5.98735890624984 -0.788076281632115 0 0 0
359 1 1 2.34877837157452 6.60541596629745 -1.4365647882196497 0 0 0
360 1 1 2.9447787147205298 6.57697540553247 -0.703345389666806 0 0 0
361 1 1 3.42861481238262 5.886634002361269 -1.09377641117385 0 0 0
362 1 1 3.3970853643678396 6.50414218348681 -1.86673361610807 0 0 0
363 1 1 2.9644340312940196 6.676976091726281 -2.71001450828534 0 0 0
364 1 1 2.5411663658967005 7.41213792726444 -3.1993795063826203 0 0 0
365 1 1 2.34767754191958 8.37141446617074 -3.0507960302969996 0 0 0
366 1 1 1.45856232860223 8.40656498352051 -3.41078860254708 0 0 0
367 1 1 0.902126771373453 9.08288771718344 -3.04525447902364 0 0 0
368 1 1 0.340381664425763 8.678313164549731 -3.69064203957055 0 0 0
369 1 1 0.9275168470422731 9.42884773779625 -4.06931496315238 0 0 0
370 1 1 1.1932035764803404 9.611124267409698 -4.9631682132501505 0 0 0
371 1 1 0.5782282011721662 9.9528135254759 -5.52799179458348 0 0 0
372 1 1 0.5478545452583853 11.299810693279 -5.59789378828009 0 0 0
373 1 1 0.20977763792085125 12.2247374585058 -5.72514775261844 0 0 0
374 1 1 -0.41231569257975975 12.441473380107698 -6.48520764801401 0 0 0
375 1 1 -1.19005793663709 11.928883769004099 -6.907331796342991 0 0 0
376 1 1 -1.4261194025759698 11.883474589853899 -7.868696699757461 0 0 0
377 1 1 -2.1873013039104396 11.585636796156 -7.47291053111166 0 0 0
378 1 1 -2.44594857499337 10.830878554630699 -7.99533913520238 0 0 0
379 1 1 -2.6224010933145796 10.2147199693716 -7.3104518571581 0 0 0
380 1 1 -3.4990955537844193 9.98876753423721 -7.55771632838714 0 0 0
381 1 1 -3.5082323207719996 10.2723795084194 -6.622460406889889 0 0 0
382 1 1 -4.008297931260069 9.495978567732019 -6.57481576219589 0 0 0
383 1 1 -3.758945597690569 8.99297202750476 -7.37810689940656 0 0 0
384 1 1 -2.8208109333186995 9.16090883353311 -7.29258246935428 0 0 0
385 1 1 -2.041554680459989 9.55940578710489 -6.8414985708264195 0 0 0
386 1 1 -1.147927880730259 9.818511699553651 -6.59943906773461 0 0 0
387 1 1 -1.963001996878519 10.179775581109999 -6.14842102356225 0 0 0
388 1 1 -1.668123271720759 9.819050685353321 -5.37664137245794 0 0 0
389 1 1 -1.6779808270106988 9.04097197901682 -5.97140227952845 0 0 0
390 1 1 -0.88583652753123 8.510950148504469 -5.771749731718451 0 0 0
391 1 1 -0.735446691043052 8.11443294447951 -6.60688266805521 0 0 0
392 1 1 0.21728442512413493 7.9913626573905505 -6.3922090062875 0 0 0
393 1 1 -0.09849714249196756 8.273420127385782 -7.317631045399059 0 0 0
394 1 1 -0.6099506136410091 9.03513184043539 -7.70533322927184 0 0 0
395 1 1 -1.095713664936609 8.184765706605821 -7.943826005230171 0 0 0
396 1 1 -0.8748124391089921 8.37342936635307 -8.83567552678135 0 0 0
397 1 1 -0.06495972799006022 8.12497819005824 -8.407396038399499 0 0 0
398 1 1 0.5118197358267349 8.826132831167712 -8.02365030599451 0 0 0
399 1 1 0.14824880084743391 9.559647457356471 -8.5266075730966 0 0 0
400 1 1 -0.6499859981217402 10.0695121444281 -8.375727971374719 0 0 0
401 1 1 -0.3609957332570871 10.7599195466308 -8.904709713416539 0 0 0
402 1 1 -0.5775086890018782 11.434440876187 -8.27564855432301 0 0 0
403 1 1 -0.7662191427830601 12.4094335483014 -8.361387160006599 0 0 0
404 1 1 -1.6931847236088395 12.5079499235488 -8.60432982760938 0 0 0
405 1 1 -1.3058566532994793 11.650797759846402 -8.90400577978711 0 0 0
406 1 1 -2.2557571598029993 11.483072262040201 -8.95833985350917 0 0 0
407 1 1 -3.0934942751804995 11.8174059365729 -9.36122352974231 0 0 0
408 1 1 -3.1423105784070886 12.1775826433418 -8.44794567431058 0 0 0
409 1 1 -3.790399495460229 11.754130811148698 -7.97253326856743 0 0 0
410 1 1 -4.22778684124324 11.415856180043 -8.810605034667311 0 0 0
411 1 1 -3.3207353755569593 11.0941057004183 -8.53555229014876 0 0 0
412 1 1 -3.785289070391089 10.292893651132099 -8.644463131226901 0 0 0
413 1 1 -3.531027982461539 10.6047672310034 -9.58322464227063 0 0 0
414 1 1 -3.3923459971237593 9.74441100633411 -9.941332120860109 0 0 0
415 1 1 -3.969653561578729 9.38653092957716 -9.278502523441428 0 0 0
416 1 1 -4.251274965489959 9.35854683990515 -8.34026706152265 0 0 0
417 1 1 -4.009605001688709 8.49500888066077 -8.68656903369251 0 0 0
418 1 1 -4.921976396148679 8.38632459363832 -9.00312609482927 0 0 0
419 1 1 -5.816632968110309 8.51195583171661 -8.71829042175997 0 0 0
420 1 1 -5.500333629726828 8.51070243196382 -7.773629083722321 0 0 0
421 1 1 -5.486730689607848 7.91261729477296 -7.0587030221685 0 0 0
422 1 1 -6.371984205978968 7.71277449850078 -7.4603765128628705 0 0 0
423 1 1 -7.018497625399789 7.485301950203871 -8.097494267533309 0 0 0
424 1 1 -6.7341914296214 8.40462285212009 -8.273055891193339 0 0 0
425 1 1 -6.797543080631299 8.17981654637686 -9.20488129592618 0 0 0
426 1 1 -7.19319285178541 8.94708534587917 -9.59715234680382 0 0 0
427 1 1 -7.0211718645183385 9.33587596387519 -10.4008547534961 0 0 0
428 1 1 -6.405390946137959 9.95902223425031 -10.832453088917902 0 0 0
429 1 1 -7.248186514589639 9.999861876815562 -11.347917274358801 0 0 0
430 1 1 -7.342263643672829 9.467833815737329 -12.1766579591632 0 0 0