Read Attempt, after unfolding 
3000 atoms
2900 bonds
0 dihedrals
0 impropers
1 atom types
1 bond types
-7.6427684 7.6427684 xlo xhi
-7.6427684 7.6427684 ylo yhi
-7.6427684 7.6427684 zlo zhi
0 0 0 xy xz yz

Atoms

1 1 1 6.48855574619527 -2.09517103888937 -5.03594741725953 0 0 0
2 1 1 6.280360472446719 -1.5544128619501698 -4.2808062517486 0 0 0
3 1 1 6.89456946400857 -0.936938274909475 -4.71350306013355 0 0 0
4 1 1 7.47093502247625 -1.63653119601834 -5.0216808784994695 0 0 0
5 1 1 7.646925395208679 -0.9603791465037629 -5.679877845141901 0 0 0
6 1 1 8.098165327969689 -0.872416738208867 -6.5533889114737 0 0 0
7 1 1 7.205213467347249 -1.1224157985390402 -6.9376193265226505 0 0 0
8 1 1 6.482708547000098 -0.490127731279971 -6.79786852266448 0 0 0
9 1 1 6.497454721739139 0.4205033402763301 -7.07351219820274 0 0 0
10 1 1 7.288488048763488 0.28198260562229305 -6.5619185157072195 0 0 0
11 1 1 7.197895011203219 1.1700754453614999 -6.86425333379562 0 0 0
12 1 1 7.558006554646559 1.16675480465623 -5.98576476085224 0 0 0
13 1 1 8.083482069715329 1.94505246987144 -5.70099176658024 0 0 0
14 1 1 8.452082461578298 1.3487247952873898 -4.99895488129353 0 0 0
15 1 1 8.106582561051507 2.0008911069068303 -4.45331373965995 0 0 0
16 1 1 7.578033388951049 2.76767085682978 -4.034790812368501 0 0 0
17 1 1 7.423958514238999 3.66684368406897 -4.41168580237221 0 0 0
18 1 1 7.9364725027748175 3.15333506695818 -5.07364741128176 0 0 0
19 1 1 8.120603560578228 4.1869078478943305 -5.09043833389045 0 0 0
20 1 1 8.018261094238397 5.1789131786679405 -5.175911920746599 0 0 0
21 1 1 7.8841151802980685 5.46947041093158 -6.0927208678172 0 0 0
22 1 1 6.9624256944105385 5.26603843210448 -6.061368020905019 0 0 0
23 1 1 6.517200315799898 6.08564663417302 -5.655139673796881 0 0 0
24 1 1 5.899741124850707 6.28094616920508 -6.32895599199003 0 0 0
25 1 1 5.711119069976018 5.439711856226849 -5.83753982596524 0 0 0
26 1 1 5.641245922549998 5.13835647217507 -6.755572772920999 0 0 0
27 1 1 5.361339711391368 4.4073800583139 -6.22347671953485 0 0 0
28 1 1 4.414601220217218 4.1893227173806 -6.3711720716908005 0 0 0
29 1 1 3.857068683026838 4.93555878699024 -6.08177924613047 0 0 0
30 1 1 3.349472927122098 4.47728522366532 -5.34796412221666 0 0 0
31 1 1 -3.02373011307658 -5.10073330954313 -5.28990310244161 0 0 0
32 1 1 -2.7770467610211496 -5.5273935362349205 -4.48908854473908 0 0 0
33 1 1 -3.7302750093332304 -5.52214901224137 -4.14291043434188 0 0 0
34 1 1 -3.05088248475577 -5.796116868954329 -3.53964361131433 0 0 0
35 1 1 -3.27217122495012 -6.60950720105994 -3.91415205507649 0 0 0
36 1 1 -3.90766879567548 -7.318673448005931 -4.0043871065559395 0 0 0
37 1 1 -4.40144349883422 -8.124556965204299 -3.6985615889396604 0 0 0
38 1 1 -5.09532377784376 -7.65606903573973 -4.07352264992502 0 0 0
39 1 1 -5.66056493233536 -7.14554369728755 -4.716024214585559 0 0 0
40 1 1 -4.9153577746829 -7.46946699103387 -5.31035383962877 0 0 0
41 1 1 -5.17509029045116 -6.56666339472816 -5.38312546968399 0 0 0
42 1 1 -5.14005854686105 -6.166238239035191 -6.24306721525066 0 0 0
43 1 1 -4.70989716870092 -6.020212544432971 -7.1543081193131695 0 0 0
44 1 1 -5.01203380673154 -5.12295244196926 -7.471691480259779 0 0 0
45 1 1 -4.83090768919876 -5.21489262195996 -6.565818132092461 0 0 0
46 1 1 -5.75620950980359 -5.3252874752085795 -6.793481817407071 0 0 0
47 1 1 -6.26151547268677 -4.65792586580955 -7.2878449677214405 0 0 0
48 1 1 -7.11743279762897 -5.0634299679898 -7.47527087196327 0 0 0
49 1 1 -6.96115921003772 -5.02145586615854 -6.504185461741519 0 0 0
50 1 1 -7.55594445902412 -4.3780327073758905 -6.1244499743343495 0 0 0
51 1 1 -7.681806780399308 -5.07235929332173 -5.536310683043459 0 0 0
52 1 1 -7.890237824246639 -4.38695835205215 -4.84686736509585 0 0 0
53 1 1 -8.179988757538368 -5.21148854571798 -4.50522028808204 0 0 0
54 1 1 -8.74331064137386 -5.8093245112380005 -5.00991864576667 0 0 0
55 1 1 -7.889120163287179 -6.09825471204006 -5.31162743901122 0 0 0
56 1 1 -7.037493272461151 -6.578635896114861 -5.378945795656151 0 0 0
57 1 1 -6.334170138706971 -5.876126890845731 -5.78524602066929 0 0 0
58 1 1 -5.68753332993016 -5.18388248216151 -5.735208400190491 0 0 0
59 1 1 -5.985245641826809 -5.4085660753364095 -4.85533345324398 0 0 0
60 1 1 -6.81663620852128 -5.847641052644559 -4.79204696213267 0 0 0
61 1 1 -6.16448090941746 0.77099796901916 7.10824002385687 0 0 0
62 1 1 -6.7337101690282095 0.033308051165851005 6.96426030069502 0 0 0
63 1 1 -7.20372071217215 -0.586499204867917 6.3198229528733805 0 0 0
64 1 1 -7.031482929666799 -1.2060713331230901 7.0818488566976 0 0 0
65 1 1 -6.10447976477504 -1.27340459920062 6.839580772507559 0 0 0
66 1 1 -5.679765909939491 -0.41274371253115505 6.63591865243216 0 0 0
67 1 1 -5.9982349285162595 -0.21265349476885698 5.67748883957383 0 0 0
68 1 1 -6.46906486538095 -1.04220878844087 5.8368150658776505 0 0 0
69 1 1 -6.91662827378219 -0.395237014414791 5.27941374017008 0 0 0
70 1 1 -7.04726927188066 -1.3664238064018202 5.082295316082639 0 0 0
71 1 1 -7.50321605353288 -1.1242800168756202 4.33804358146514 0 0 0
72 1 1 -6.57062211579419 -0.966882368408352 4.04506933509404 0 0 0
73 1 1 -6.86695772226905 -1.8701739569393998 3.8070705178394504 0 0 0
74 1 1 -7.25845203421782 -1.23745451270616 3.19335643962237 0 0 0
75 1 1 -7.0842504080064295 -0.35866951573653005 2.7581142045467697 0 0 0
76 1 1 -6.40324869574476 0.38926022368109003 2.76230633377343 0 0 0
77 1 1 -5.56773371383139 0.225979086207735 3.20756173927103 0 0 0
78 1 1 -5.2629741229728495 1.0168257191605001 2.7519984848406405 0 0 0
79 1 1 -5.870307482155829 1.21291176305908 2.14938500369398 0 0 0
80 1 1 -5.676309365687519 0.8627855930243221 1.25079954946867 0 0 0
81 1 1 -5.8252552890423 0.07716254199055506 1.92602046680199 0 0 0
82 1 1 -5.9869295059299805 -0.6443659857909371 2.62569782898209 0 0 0
83 1 1 -5.73704186475163 -1.08968057438286 3.4059301183990596 0 0 0
84 1 1 -5.42892820723316 -0.718839603998068 4.263568707901721 0 0 0
85 1 1 -4.86946381945065 -0.45699771513953097 3.52464897120424 0 0 0
86 1 1 -4.36646924450908 -1.03050359377967 4.09673609067031 0 0 0
87 1 1 -3.8481613471351004 -1.40453010031883 4.82952884591912 0 0 0
88 1 1 -4.56584441988612 -0.749418110190867 5.03665182958402 0 0 0
89 1 1 -4.8875645006464 -0.06585261121745756 5.6689820535475395 0 0 0
90 1 1 -4.01882005563738 0.177761775674043 5.43726651164243 0 0 0
91 1 1 2.2082180848661603 3.70936029114793 2.34788787669982 0 0 0
92 1 1 2.7586477993951704 4.1536502057671 1.6707757742615101 0 0 0
93 1 1 3.1748651304849904 5.01358312894662 1.7584166242221901 0 0 0
94 1 1 2.42508581713896 4.94613933964009 2.30276501003559 0 0 0
95 1 1 1.66207470747078 5.0667994913328 1.70553004609086 0 0 0
96 1 1 0.8430805245464009 4.964831906337049 1.13651046067817 0 0 0
97 1 1 0.584772500249569 5.832482488280291 0.884777569767168 0 0 0
98 1 1 0.026120196526565387 5.9660053930948305 0.11634740196028404 0 0 0
99 1 1 -0.638329329744593 6.1843194373597505 -0.5795741582059271 0 0 0
100 1 1 -1.0549046385371 5.49854144473632 -1.14512783516052 0 0 0
101 1 1 -0.11002422907646903 5.48014015219914 -1.3481609160321102 0 0 0
102 1 1 0.47479428563172 4.9691273891734005 -0.788581121564317 0 0 0
103 1 1 0.20280587712277898 4.38698243117778 -0.08643055611370887 0 0 0
104 1 1 -0.4594925198935421 5.076740695979081 -0.334115234087339 0 0 0
105 1 1 -0.919691284726039 5.4139336859147 0.47163011032559 0 0 0
106 1 1 -1.6034563014148 4.790520148067531 0.18422170618358702 0 0 0
107 1 1 -1.44409994002116 4.613452329793731 -0.7867988455697271 0 0 0
108 1 1 -2.34772380526416 4.491461714555769 -1.0018175038294999 0 0 0
109 1 1 -2.67642666612041 3.61235515860425 -1.2099128335261298 0 0 0
110 1 1 -3.28481990828668 2.90760099873526 -1.01391930339387 0 0 0
111 1 1 -3.89683702007699 3.34130525428165 -0.40339562760541203 0 0 0
112 1 1 -3.5358152954503796 4.12346442310412 -0.8864372030351841 0 0 0
113 1 1 -3.61197561101624 3.7026767439108803 -1.7510629827183402 0 0 0
114 1 1 -3.11785689137482 3.10216192472939 -2.3221709594998 0 0 0
115 1 1 -2.43758660502305 2.50297730191611 -2.05753030755688 0 0 0
116 1 1 -1.58196059996537 2.65712739101702 -2.4132586257086603 0 0 0
117 1 1 -1.4637102472373602 1.80024100014529 -2.0345676875564296 0 0 0
118 1 1 -2.10596607543252 1.47992735552645 -2.6765097055219798 0 0 0
119 1 1 -2.2528507782335203 1.29602081195488 -3.58121353089872 0 0 0
120 1 1 -2.00927264415311 2.18090340684038 -4.01437433603578 0 0 0
121 1 1 -6.55377110293182 -5.4390008279221 2.02393812442835 0 0 0
122 1 1 -5.6560680915923 -5.27994088960295 1.5798988766537903 0 0 0
123 1 1 -5.751129028052829 -4.27341672590052 1.83914784320636 0 0 0
124 1 1 -6.435708871574549 -4.65379235023295 1.2838537915260702 0 0 0
125 1 1 -7.1226652770136205 -3.9811666781777597 1.63556255985974 0 0 0
126 1 1 -7.4013958964697695 -3.08714178741269 1.9596511150382099 0 0 0
127 1 1 -7.992200715581178 -3.1871697251093702 2.67332423911599 0 0 0
128 1 1 -8.917154076566868 -3.0533678667150403 2.92921712420734 0 0 0
129 1 1 -9.339046823084658 -3.70599862186854 3.49777199924486 0 0 0
130 1 1 -9.561828378867247 -4.6555598360172405 3.45089447571941 0 0 0
131 1 1 -9.206244109443439 -4.71174315047257 2.55871492803196 0 0 0
132 1 1 -8.393760206243488 -4.81577668245738 2.0979836385744197 0 0 0
133 1 1 -9.020923563560109 -4.4080131406169905 1.39948664188699 0 0 0
134 1 1 -9.790434590847768 -4.68365689322731 0.9027654902287309 0 0 0
135 1 1 -9.297734526204438 -3.97657891846089 0.498989707696083 0 0 0
136 1 1 -8.776547624212279 -4.22356670136636 -0.24851177661522195 0 0 0
137 1 1 -8.935447576325497 -3.2291540761591295 -0.07563280173474493 0 0 0
138 1 1 -9.409629167117657 -2.43516549126599 0.3329852850288211 0 0 0
139 1 1 -9.602313718253658 -3.05526331088181 1.00253820127067 0 0 0
140 1 1 -8.855001150033457 -3.41510015676175 1.64851627139824 0 0 0
141 1 1 -8.541929240081117 -2.6684836719665603 1.1694990138808798 0 0 0
142 1 1 -8.429330730808177 -2.2724958888090603 2.0541553821676497 0 0 0
143 1 1 -9.034031530773088 -1.8416916533561998 1.42459531585085 0 0 0
144 1 1 -9.181379881581018 -1.20501836146331 0.6838625613613071 0 0 0
145 1 1 -8.42654463384898 -1.8448193651538403 0.5717377340292429 0 0 0
146 1 1 -7.940281656678539 -2.5796253365519703 0.116438372300397 0 0 0
147 1 1 -7.3434581389714895 -3.37552843350672 -0.15341582282351096 0 0 0
148 1 1 -6.5709632266593 -3.1456892325736803 -0.6500031997574539 0 0 0
149 1 1 -5.80662195397233 -3.62809536519741 -0.7494830531979629 0 0 0
150 1 1 -4.8483499685986295 -3.40589800157545 -0.9725917659228241 0 0 0
151 1 1 -2.01287751023947 4.79723062716579 5.50233114689496 0 0 0
152 1 1 -1.57684869573762 4.82739749441778 6.3027486865697595 0 0 0
153 1 1 -1.0393911987903 4.17761413245318 6.70114682319975 0 0 0
154 1 1 -0.232102907154637 3.77910737531816 6.36077683831724 0 0 0
155 1 1 -0.854854747821144 3.61876477980127 5.6272032001798795 0 0 0
156 1 1 -1.19466886516826 2.6490835401595 5.7447034583036105 0 0 0
157 1 1 -0.27952758022539204 2.8242846599137597 5.71405125149726 0 0 0
158 1 1 0.566953446355587 2.97113663574771 6.146816276702441 0 0 0
159 1 1 0.892360391131399 3.7818571779547407 6.513835694784991 0 0 0
160 1 1 1.5625937859706398 3.0559646957192004 6.3810615951024605 0 0 0
161 1 1 1.6393831306275701 3.8739761692031496 5.90083173490676 0 0 0
162 1 1 2.5853152943864 3.94249126210261 5.92181275810972 0 0 0
163 1 1 2.95436851091447 3.11640351893268 6.16148577759109 0 0 0
164 1 1 3.6679746199079197 2.51157684113015 5.957838582052879 0 0 0
165 1 1 3.44191673638695 3.0020047162767 5.152176641156831 0 0 0
166 1 1 3.73599548222772 3.9314299402260797 4.95613438560829 0 0 0
167 1 1 3.4949006594969303 4.33984566153055 5.75897380787012 0 0 0
168 1 1 3.5132833562835097 4.7311659795446905 6.60483162915136 0 0 0
169 1 1 3.02065482795116 5.45522372039735 6.277626622898411 0 0 0
170 1 1 3.4774925506395 5.70834550934235 5.464754251995091 0 0 0
171 1 1 3.35537869730985 6.70418237298045 5.24568743433064 0 0 0
172 1 1 2.8447099060819103 7.53912491244187 5.395209237910151 0 0 0
173 1 1 2.8291359372442 7.776770865453929 4.44541683259412 0 0 0
174 1 1 2.62742367015056 8.475744500552608 5.10334820495479 0 0 0
175 1 1 3.44321114886481 8.708795834587209 5.542809846044509 0 0 0
176 1 1 4.23568571345501 9.169805625832758 5.522273149143031 0 0 0
177 1 1 4.9298962675382505 9.70252126585357 5.94419140906324 0 0 0
178 1 1 5.464130768869881 9.16055356627032 5.39401932849986 0 0 0
179 1 1 4.97974442975955 8.312780074933949 5.63601633463601 0 0 0
180 1 1 5.144091928029719 8.738653174572768 6.48538768565705 0 0 0
181 1 1 5.260593143991 2.08456676352319 -1.72554263519773 0 0 0
182 1 1 4.89303104275301 2.16742687650107 -0.8685917893749521 0 0 0
183 1 1 4.22200232066302 2.7702660738883798 -1.25108966177637 0 0 0
184 1 1 3.42668838275739 3.01916837722569 -1.79086507248519 0 0 0
185 1 1 3.53967979635492 2.07253690099626 -1.6977957862761999 0 0 0
186 1 1 3.89994975887527 1.17407205078869 -1.4672429873931203 0 0 0
187 1 1 2.9164022177186 1.17933881972793 -1.327848477479 0 0 0
188 1 1 2.6432786126913 0.894359663548125 -0.47478074496800393 0 0 0
189 1 1 3.11480965836518 0.07601554082011486 -0.6032071000417429 0 0 0
190 1 1 4.07424469320022 0.204976582144351 -0.6866383366165041 0 0 0
191 1 1 4.8359852450146 0.229570109208658 -0.11463460282150095 0 0 0
192 1 1 4.30821249554284 0.991492381655481 0.06060089602760768 0 0 0
193 1 1 4.1026076888548895 1.8623520060661 -0.290299910483234 0 0 0
194 1 1 3.9306491900677205 2.13879388691345 0.583019383660641 0 0 0
195 1 1 4.29676791214152 2.96212217700338 0.12734292782253998 0 0 0
196 1 1 4.18321820545125 3.75124846530258 0.724200052624107 0 0 0
197 1 1 3.9164982288598797 3.435544057593 1.6402138694166202 0 0 0
198 1 1 3.98953714906644 2.8301962945838497 2.3743158504630695 0 0 0
199 1 1 4.54765634605683 3.57196612473779 2.71563023767653 0 0 0
200 1 1 4.93078907761411 4.23211799991266 2.2127839794463102 0 0 0
201 1 1 4.20618175745165 4.61617796872299 1.74249510672351 0 0 0
202 1 1 4.63801514452043 5.05706320401437 1.0076689376961898 0 0 0
203 1 1 5.15529175637625 4.23835298550758 1.00870235981964 0 0 0
204 1 1 5.84205784139904 4.06488391484977 0.364219517366285 0 0 0
205 1 1 6.2768246587737595 4.56042597010001 1.08181561984206 0 0 0
206 1 1 5.907415143896411 5.39415849952899 0.8546045699827599 0 0 0
207 1 1 6.83854002571908 5.68340252277161 0.68513698545102 0 0 0
208 1 1 7.51281519276649 5.90694559570392 0.11964566619105899 0 0 0
209 1 1 8.42156616993498 6.111586447531541 0.14782152909624302 0 0 0
210 1 1 8.174283189841049 5.532842797955261 0.839354894237379 0 0 0
211 1 1 -4.1597332026939 0.183831721899506 -0.511220890287034 0 0 0
212 1 1 -3.70837472214592 0.3974205249907021 -1.3597020361038998 0 0 0
213 1 1 -2.9583421865521298 -0.18451619406798597 -1.25169084452519 0 0 0
214 1 1 -2.69998615420971 -0.148322798817653 -2.19390890103746 0 0 0
215 1 1 -1.99245113214847 0.45687771697452106 -1.8433104136018 0 0 0
216 1 1 -1.09875768101929 0.7382142797450371 -2.0517684944219 0 0 0
217 1 1 -1.6520740818450799 0.44705868017240014 -2.8892591221342703 0 0 0
218 1 1 -1.05902614160214 1.0443566004956302 -3.3032186437339996 0 0 0
219 1 1 -1.3720862564907899 1.90592958272743 -3.17734902977196 0 0 0
220 1 1 -0.45139928309822797 1.8071057838103204 -3.48553919031223 0 0 0
221 1 1 0.14701126946337106 2.54545025726428 -3.4752001003874904 0 0 0
222 1 1 0.6859459406447092 1.7524330228113703 -3.29990837296072 0 0 0
223 1 1 0.7881119805080651 1.1124293457638 -2.6029599156991403 0 0 0
224 1 1 1.23331297408546 1.69903465806636 -1.98203668420004 0 0 0
225 1 1 0.9456951608071509 2.59510212940264 -2.2233462648792903 0 0 0
226 1 1 0.36876068016155494 3.16826442194163 -1.8225753862629 0 0 0
227 1 1 0.199256710637047 2.6107210003415 -1.1070888590076597 0 0 0
228 1 1 0.8758428428062521 1.9016584135316599 -0.851416846313778 0 0 0
229 1 1 1.85333955680682 1.5397373075741398 -1.02144957612453 0 0 0
230 1 1 1.43352431847396 0.697819426845419 -0.8349091664282391 0 0 0
231 1 1 0.7356727284930641 0.803929899552788 -1.58968858125316 0 0 0
232 1 1 0.13685231450620206 0.32147606302813203 -1.0081066328325898 0 0 0
233 1 1 0.8251563384246842 -0.172308757580506 -0.441736564603167 0 0 0
234 1 1 0.32540394605875406 -0.06800818775243925 0.397932650445723 0 0 0
235 1 1 0.2226106096736861 -1.04157954965718 0.504397123937691 0 0 0
236 1 1 -0.562846691733627 -1.6302479410625401 0.8108105256205821 0 0 0
237 1 1 -0.9929583422624839 -2.47816473304016 1.14140411736618 0 0 0
238 1 1 -1.7303067039199598 -1.9466880605853798 0.78750211186175 0 0 0
239 1 1 -2.39904150465361 -2.51750480526265 1.16963936673999 0 0 0
240 1 1 -2.17706957527994 -3.4968097815285404 1.1554233664995401 0 0 0
241 1 1 6.257029926602969 -5.96541659763867 7.5678376638316 0 0 0
242 1 1 6.189056937692679 -6.4095760832155 8.455737232766598 0 0 0
243 1 1 6.75941282476527 -6.150096279120881 9.190617631604049 0 0 0
244 1 1 5.788048806883321 -5.888383366735599 9.399410041684728 0 0 0
245 1 1 5.40927159269321 -6.64229112162478 9.902512048576869 0 0 0
246 1 1 4.797726600060691 -6.92021453665099 10.573203435244277 0 0 0
247 1 1 5.17941016541007 -7.698537458147689 10.130258831116567 0 0 0
248 1 1 4.9891796985362 -8.607043866793749 10.231824081755446 0 0 0
249 1 1 5.814578360679951 -9.19659327495592 10.469810003705078 0 0 0
250 1 1 5.915666008813339 -9.96208775482381 10.971105202834037 0 0 0
251 1 1 5.8976741760861096 -10.910945445795118 10.696513244601487 0 0 0
252 1 1 6.304562043821861 -11.156051690752598 11.538460266334926 0 0 0
253 1 1 7.20365851136675 -11.030563323757969 11.904447084318646 0 0 0
254 1 1 7.40160179062765 -10.280021521321018 12.511964218249487 0 0 0
255 1 1 8.281252012722748 -10.642605249894459 12.540806414047587 0 0 0
256 1 1 8.841164385646127 -9.90695674404681 12.849676356043567 0 0 0
257 1 1 9.263518717697528 -9.1612803290231 12.347132173898906 0 0 0
258 1 1 9.355442354600836 -8.4076188775058 12.960927098729655 0 0 0
259 1 1 8.876724734185077 -9.043154679854101 13.500241063617505 0 0 0
260 1 1 8.141017648008436 -8.595858257220021 13.204170522711225 0 0 0
261 1 1 8.168561938228954 -8.584950591451902 14.147106982455295 0 0 0
262 1 1 7.296317231421815 -8.88566498516684 14.35462072071079 0 0 0
263 1 1 6.655828333780746 -9.355509084013732 14.800484939986559 0 0 0
264 1 1 5.877865496155045 -8.963743059966912 15.038452175692361 0 0 0
265 1 1 5.702803927579896 -8.531220953011562 15.88092413863489 0 0 0
266 1 1 6.356464397700595 -8.527368745341473 16.551064034699795 0 0 0
267 1 1 6.355458269041575 -9.424700396750932 16.954302267515466 0 0 0
268 1 1 7.187897961868506 -9.907455097837712 16.973586276815215 0 0 0
269 1 1 7.810451387810856 -9.250437129030583 17.191308569743697 0 0 0
270 1 1 7.1331218273377655 -8.715957775488153 17.590136447080898 0 0 0
271 1 1 1.1840056746710201 -6.65048459513868 6.55786076445295 0 0 0
272 1 1 1.20436386555927 -7.28365839510944 7.21240317388713 0 0 0
273 1 1 1.39730258197956 -8.167993747206449 6.947258068281361 0 0 0
274 1 1 0.885616143771339 -9.00734160475647 7.059033155881551 0 0 0
275 1 1 1.23004478879835 -8.990653815932259 7.94233091533169 0 0 0
276 1 1 1.6097260035548702 -8.137126042444569 8.18222635868186 0 0 0
277 1 1 1.26732763638206 -8.54595520983571 8.917393425972909 0 0 0
278 1 1 1.7539667307352098 -8.30248870511421 9.722822745577789 0 0 0
279 1 1 2.67751828964626 -8.16078344913782 9.525439245691969 0 0 0
280 1 1 2.36444292463762 -7.758947086445361 10.33268529415573 0 0 0
281 1 1 1.94091697521436 -7.986122138365251 11.17389245511427 0 0 0
282 1 1 1.1957462026391201 -8.499399009660431 10.999818987545279 0 0 0
283 1 1 0.5941424089165981 -8.111938959841591 10.371449272233779 0 0 0
284 1 1 -0.312342321993174 -7.841244689154962 10.285214184522879 0 0 0
285 1 1 -0.503866490666361 -8.712578268618152 10.073558927648598 0 0 0
286 1 1 -1.13717023992103 -9.43491329314029 10.354840489343697 0 0 0
287 1 1 -1.66927909344794 -9.910931447196582 9.675511585762177 0 0 0
288 1 1 -1.4387851864188101 -10.766701159584073 9.948944126377356 0 0 0
289 1 1 -0.5781118849016391 -10.725519743285513 9.460857336655675 0 0 0
290 1 1 -0.348652174192457 -11.463222252404663 10.026425643269285 0 0 0
291 1 1 -0.7342137482647629 -12.389801506865112 10.074714099941204 0 0 0
292 1 1 -0.773528803538979 -12.537695910420453 11.070423614509544 0 0 0
293 1 1 -1.50613797316019 -12.307925571591234 11.670267515622093 0 0 0
294 1 1 -0.9074453940821651 -11.595859094280344 11.703281389347072 0 0 0
295 1 1 -1.00754766950751 -11.849884817521364 12.631146231477112 0 0 0
296 1 1 -0.49536877850320005 -12.451133511981524 13.142764072820942 0 0 0
297 1 1 -0.630966654894593 -12.020794391296644 13.952096678075952 0 0 0
298 1 1 -1.40388907930465 -11.826317849162473 14.420626873226391 0 0 0
299 1 1 -1.80546682289695 -11.499026688283823 13.649842355471032 0 0 0
300 1 1 -0.947992621030004 -11.073636950671103 13.541928911631082 0 0 0
301 1 1 4.54859307113889 4.48698746269759 -5.33435213541612 0 0 0
302 1 1 5.0110619758134005 4.82394172294691 -4.553314001997809 0 0 0
303 1 1 4.2779259104815 5.447329285935901 -4.53819529519859 0 0 0
304 1 1 4.81076498436343 5.6165459449067905 -5.25450942628819 0 0 0
305 1 1 4.69945031070264 5.55064443586971 -6.19942854044541 0 0 0
306 1 1 3.97268683791188 6.130176633590599 -6.35178918606634 0 0 0
307 1 1 3.7493484352585 5.82004238665051 -5.479173269124991 0 0 0
308 1 1 2.86476743644893 6.0666441964463695 -5.8075594969178 0 0 0
309 1 1 3.01569112856911 6.14503875741649 -4.766451938655 0 0 0
310 1 1 1.99380984485176 6.3359504096993495 -4.78506866614371 0 0 0
311 1 1 1.81797580093397 5.420110694043321 -4.512568134899361 0 0 0
312 1 1 2.67763189628815 5.31472315540244 -4.09758718847172 0 0 0
313 1 1 2.2871685939046804 5.3390058228318 -3.2499965485764104 0 0 0
314 1 1 1.9982025954030702 6.20488613117002 -3.5136682098112 0 0 0
315 1 1 2.86159731515544 6.6354823494493695 -3.5763800082065296 0 0 0
316 1 1 3.56572810052385 6.06870462373455 -3.8662594766623397 0 0 0
317 1 1 4.22209310348162 6.53740308897719 -4.366256633378001 0 0 0
318 1 1 3.5794604070327902 7.1970810676577806 -4.66288435774853 0 0 0
319 1 1 4.06712420324875 7.8173259358421685 -4.0645931809899905 0 0 0
320 1 1 4.6826896463543095 7.27230089658525 -3.6719020237868 0 0 0
321 1 1 5.4621404514719805 7.29754780977662 -3.18150443022193 0 0 0
322 1 1 5.75646671362903 6.92871595585646 -4.0086527989117 0 0 0
323 1 1 6.64716383013915 7.213632269587519 -4.09282577196634 0 0 0
324 1 1 6.610947311533099 7.21082801097321 -4.980846312179 0 0 0
325 1 1 7.42430964003682 7.7178149636133595 -4.904106203986751 0 0 0
326 1 1 7.0227390929653 8.093151596671408 -5.67762303579824 0 0 0
327 1 1 7.27547054404572 8.388346773626427 -6.55825450307367 0 0 0
328 1 1 7.3981519932154 7.535798111815197 -6.89027463651634 0 0 0
329 1 1 6.76860365875543 7.245656453218228 -6.2484068306084 0 0 0
330 1 1 5.92409387050388 7.463545638340688 -5.811582667989629 0 0 0
331 1 1 -1.27458248463993 0.9006220736805061 -5.29409727451279 0 0 0
332 1 1 -0.786910611606402 1.6868541593806499 -5.2671137914639194 0 0 0
333 1 1 -1.04293577088441 1.67641581400714 -4.278845120663569 0 0 0
334 1 1 -1.88653765704703 1.34375445414303 -4.51902728933314 0 0 0
335 1 1 -2.7646170467197 0.9918806660362021 -4.52777616229688 0 0 0
336 1 1 -2.3937487750830497 1.0099477537338801 -5.424293333397619 0 0 0
337 1 1 -2.29981904264572 0.08110291845025142 -5.33329520891099 0 0 0
338 1 1 -2.26951013828495 -0.8193195064563991 -5.588094216240441 0 0 0
339 1 1 -2.81907954938433 -1.4278175079271298 -6.18573149881475 0 0 0
340 1 1 -3.35758249402259 -0.6942821372666199 -6.5522776128107205 0 0 0
341 1 1 -3.2304725620473795 0.02008726293692842 -7.202736581436981 0 0 0
342 1 1 -4.002514414760911 -0.432041820321809 -7.59859843813367 0 0 0
343 1 1 -3.61699266306616 0.09360915344894133 -8.295677987272338 0 0 0
344 1 1 -4.4250454116634 -0.29128749589661806 -8.712900199727848 0 0 0
345 1 1 -3.8195695797784706 -1.0163465447445699 -8.676599148720758 0 0 0
346 1 1 -3.14700430958412 -1.15979443018635 -9.442480440004829 0 0 0
347 1 1 -2.95323306798616 -0.51224521362115 -10.156804581945718 0 0 0
348 1 1 -3.5573535602186097 -0.487109516230248 -10.86113906686655 0 0 0
349 1 1 -3.9196551510250597 0.42853353053252796 -10.89011069046741 0 0 0
350 1 1 -2.9687760595066406 0.42834033198062604 -10.69612418606086 0 0 0
351 1 1 -2.67079345681938 1.30378320002317 -11.01107152735776 0 0 0
352 1 1 -2.63244060881439 2.22314617894786 -11.182075305351061 0 0 0
353 1 1 -3.53682148515995 2.40780851727651 -11.38922405368142 0 0 0
354 1 1 -3.2810287069477897 3.1012500593197103 -11.969882169442691 0 0 0
355 1 1 -2.9733879581141602 3.63661049286242 -11.212516985079251 0 0 0
356 1 1 -2.82850507123671 3.80534448295987 -10.23573554580086 0 0 0
357 1 1 -2.00357117261941 3.7947728727223504 -9.670933359084952 0 0 0
358 1 1 -1.8246402832581299 3.4827877356702297 -10.562701687053131 0 0 0
359 1 1 -2.103030389218 3.02935425138343 -11.416605014487981 0 0 0
360 1 1 -1.69619288311387 3.8964892609636803 -11.607979492171651 0 0 0
361 1 1 3.43709446686522 -0.234006807433637 4.50060971775545 0 0 0
362 1 1 2.85195775337601 -0.8885766781210009 4.87750841370268 0 0 0
363 1 1 3.72151536047558 -1.2652449518587099 4.753176518647 0 0 0
364 1 1 4.23145597904632 -1.26701239474265 3.98674450971543 0 0 0
365 1 1 4.46473349679459 -2.1920297645120503 4.2179471285808505 0 0 0
366 1 1 3.5430284672847003 -2.28911460265023 4.05618043780183 0 0 0
367 1 1 3.85117100608284 -2.63222314277498 3.20088614458795 0 0 0
368 1 1 3.05798033991753 -3.13684808234775 3.29954810857583 0 0 0
369 1 1 2.18715330439449 -2.7779191069765004 3.0752824011008597 0 0 0
370 1 1 2.3475512691070097 -3.50692391180695 2.46113021818086 0 0 0
371 1 1 1.80661074632902 -3.3343037003447793 1.6625654241670098 0 0 0
372 1 1 1.5760135065908 -2.4100576502393998 1.47098984965577 0 0 0
373 1 1 2.37684155702425 -2.50082498146021 1.9796066639010599 0 0 0
374 1 1 3.26009153565235 -2.5661283955262797 2.31648918321515 0 0 0
375 1 1 3.03811466054832 -2.0430840403642603 3.1114563369507002 0 0 0
376 1 1 2.2147494840847 -1.7332645056869098 2.8238600116655 0 0 0
377 1 1 2.0357468311044897 -1.21771595899413 3.60873219656322 0 0 0
378 1 1 1.57196925437325 -0.9314771346763241 2.8516565288254903 0 0 0
379 1 1 1.92880720162876 -0.21802808105206994 2.32582256165181 0 0 0
380 1 1 2.4397238694789403 0.578851009055635 2.59099960074156 0 0 0
381 1 1 3.27875087423827 0.29886817730570897 2.9290981040112 0 0 0
382 1 1 3.5034104516278397 1.00720682580581 3.5424482222419305 0 0 0
383 1 1 2.56151723087558 1.13770423576933 3.5286895707342296 0 0 0
384 1 1 1.7342038667997501 0.824613875382607 3.25960166685694 0 0 0
385 1 1 1.92801330569448 0.7408586979930991 4.222077530522371 0 0 0
386 1 1 1.53280013698672 0.54018664287466 5.06783459110038 0 0 0
387 1 1 0.7043781671144971 0.9433602220256321 4.7413753689511395 0 0 0
388 1 1 1.00914607956198 1.62742739645553 4.10573278416266 0 0 0
389 1 1 0.32090856658587297 2.05019333838184 3.55639564587704 0 0 0
390 1 1 -0.142598554838134 2.09949380770798 4.51089647191359 0 0 0
391 1 1 -7.15751172113845 6.428339822521269 2.91297692466244 0 0 0
392 1 1 -7.42824202230995 6.2676511757117 3.8083323284702497 0 0 0
393 1 1 -8.10726879987284 5.86332906657026 3.1740189020497502 0 0 0
394 1 1 -8.44709599536018 5.514811086014331 3.96235555883197 0 0 0
395 1 1 -9.01781623155341 6.154604149974741 4.45184882813651 0 0 0
396 1 1 -8.73514110008626 5.641591455112281 5.21325213190979 0 0 0
397 1 1 -8.91530941035475 4.703832186404339 5.2836971424842805 0 0 0
398 1 1 -9.37200041574663 4.598735159951009 6.117074690247611 0 0 0
399 1 1 -9.860331899370038 5.06587392823337 5.42829345982045 0 0 0
400 1 1 -9.714004854948408 5.378324871168211 4.55084236863802 0 0 0
401 1 1 -10.618480967006878 5.43472637407992 4.188135513302759 0 0 0
402 1 1 -10.972301095573208 6.057030546569919 3.52062167951838 0 0 0
403 1 1 -11.832220521895087 6.06309188956356 3.18087926122543 0 0 0
404 1 1 -12.651717345558847 6.42930392744055 3.3741781591966302 0 0 0
405 1 1 -13.388191823289437 5.90623118154196 3.7910198886030204 0 0 0
406 1 1 -13.422167674169138 4.9704025395660905 3.9749695866308796 0 0 0
407 1 1 -12.679783866417768 5.154032406674401 3.45732673171827 0 0 0
408 1 1 -12.108858740493798 5.57573636206518 4.06619931137046 0 0 0
409 1 1 -12.598994869579867 6.2218747215555705 4.43905611603173 0 0 0
410 1 1 -13.338923595603827 6.87103758685738 4.50810828414831 0 0 0
411 1 1 -13.366756003229426 7.2294105402258495 3.5731021991909504 0 0 0
412 1 1 -14.022673364756477 7.809551150336109 3.17183144450965 0 0 0
413 1 1 -13.424218405199337 7.47072307520266 2.5324696930648702 0 0 0
414 1 1 -12.795356418747557 6.965387843104419 1.98251861608954 0 0 0
415 1 1 -12.105765772972257 7.039424642271129 2.60417862023955 0 0 0
416 1 1 -12.269788838097497 7.383085724427098 3.4910720940178503 0 0 0
417 1 1 -11.783346215223528 6.87923681014311 4.13852122137966 0 0 0
418 1 1 -11.324021495219968 7.4819975443093485 4.70038953329704 0 0 0
419 1 1 -10.563426607408628 6.921140605528639 4.6634936722385305 0 0 0
420 1 1 -10.8025040714484 6.059134311199888 5.1243993664311 0 0 0
421 1 1 5.12430992834039 -3.54213489383871 0.19025127074493803 0 0 0
422 1 1 5.43090050070377 -4.28992466258536 -0.29166316752140997 0 0 0
423 1 1 5.96000919338308 -5.00483392884908 -0.6029008597345401 0 0 0
424 1 1 5.51292338235947 -5.49830933758991 0.02403920399776016 0 0 0
425 1 1 5.1573108657491105 -6.2866559448294295 0.45569077956627896 0 0 0
426 1 1 4.42977848388571 -5.79721713395157 0.8226747288028979 0 0 0
427 1 1 4.45810930003448 -5.44403961542037 -0.08252894355506957 0 0 0
428 1 1 4.77864323016764 -6.03183491084826 -0.774029739965445 0 0 0
429 1 1 5.467330656007169 -6.22621822152268 -1.3718883028579798 0 0 0
430 1 1 5.629714283111331 -6.0913081514484695 -2.34059481227868 0 0 0
431 1 1 5.423296267899981 -5.70165147583179 -3.18277529466993 0 0 0
432 1 1 5.338723221553111 -6.412928054463401 -3.88905749725756 0 0 0
433 1 1 5.745801882330429 -7.24417007590932 -4.36478804846689 0 0 0
434 1 1 6.637842156413949 -6.93186451850493 -4.37350758708784 0 0 0