Read Attempt, after unfolding 
40000 atoms
39900 bonds
0 dihedrals
0 impropers
1 atom types
1 bond types
-18.12301 18.12301 xlo xhi
-18.12301 18.12301 ylo yhi
-18.12301 18.12301 zlo zhi
0 0 0 xy xz yz

Masses

1 1

Atoms

1 1 1 3.1184710169074603 -11.416601979828801 12.4349703790747 0 0 0
2 1 1 2.35081963980571 -11.0658335013169 12.888681455616698 0 0 0
3 1 1 2.6335780633948596 -11.9566445360358 13.198152920120899 0 0 0
4 1 1 1.92858058384844 -12.329112846194901 13.711751603341401 0 0 0
5 1 1 2.08884021372073 -12.9087285318536 14.415111390002902 0 0 0
6 1 1 1.32565433397718 -13.272252378352801 14.0798492932155 0 0 0
7 1 1 2.00330044562168 -13.6652646151632 13.4927187575003 0 0 0
8 1 1 1.2780520321596398 -13.000160821707802 13.1724172867206 0 0 0
9 1 1 0.856661997533088 -13.408453217228 12.3339630080356 0 0 0
10 1 1 0.745422531751011 -13.7424872435741 11.436332920012902 0 0 0
11 1 1 1.7109516658470902 -13.9778533070747 11.706118879913198 0 0 0
12 1 1 1.9512861804259598 -14.8331781034714 11.449795896341099 0 0 0
13 1 1 2.04712391673687 -15.477835130169499 12.224592944281301 0 0 0
14 1 1 2.3978040399242997 -16.299538953970497 12.5737551015285 0 0 0
15 1 1 3.10101879857028 -15.8601996203074 12.982155006925302 0 0 0
16 1 1 3.66340415470794 -15.9994803656612 13.7539796140662 0 0 0
17 1 1 4.3908393309613505 -15.7109248498371 13.2145534547916 0 0 0
18 1 1 4.423622474090821 -16.553811913558302 12.8759527465168 0 0 0
19 1 1 5.26038500464935 -16.574230483470302 12.411043855648101 0 0 0
20 1 1 5.63092362876001 -17.4445845101795 12.4412558817604 0 0 0
21 1 1 4.7783664484921395 -17.8188058452064 12.4485414842391 0 0 0
22 1 1 4.0061998213365 -17.5662088067275 13.0276166893735 0 0 0
23 1 1 3.4738648179463603 -16.874296593680302 12.656998890202 0 0 0
24 1 1 3.5482889951163195 -16.4200410357597 11.859873626935197 0 0 0
25 1 1 4.152897352969481 -17.1038952176297 11.5429729387639 0 0 0
26 1 1 5.0405177279042 -16.8087309756759 11.3957299055554 0 0 0
27 1 1 4.95217663649111 -15.8705251057695 11.4064836444655 0 0 0
28 1 1 5.94098903392413 -15.9618875577084 11.4911811700093 0 0 0
29 1 1 6.578320432376129 -16.5176048750475 11.844462361930999 0 0 0
30 1 1 6.7371654306678606 -17.0080616990579 12.6983425840607 0 0 0
31 1 1 7.21674767230761 -17.1800966074643 13.469015624816802 0 0 0
32 1 1 8.03177421658205 -16.5315888275741 13.328931559105401 0 0 0
33 1 1 8.11020707888494 -15.6425092578615 13.412615944721999 0 0 0
34 1 1 7.3958620983591405 -15.3382250518802 12.696533371684598 0 0 0
35 1 1 7.324467487879749 -15.568778871356098 11.7657808595208 0 0 0
36 1 1 6.66711330793605 -15.271085907415301 11.1577371920297 0 0 0
37 1 1 5.815689913886451 -14.9377523169785 11.433410586815699 0 0 0
38 1 1 5.44817341376965 -14.145116416305301 11.1487750075721 0 0 0
39 1 1 6.25035343193456 -13.628933732859199 11.3570271398176 0 0 0
40 1 1 6.67603501185252 -14.2354075491641 10.736849466729 0 0 0
41 1 1 5.8681585297928 -14.5262155170312 10.277655215405199 0 0 0
42 1 1 5.10397278823279 -13.972540263490501 10.2366322979578 0 0 0
43 1 1 4.1432704199255 -14.2240166538644 10.366480835374 0 0 0
44 1 1 3.97240950337655 -13.761809148899 9.59129541135809 0 0 0
45 1 1 4.649446624694701 -13.346792700889402 9.03584681711617 0 0 0
46 1 1 5.0163107725772695 -12.9318445174508 8.24055077728189 0 0 0
47 1 1 4.7841989928009 -12.1982739376125 8.807125562817731 0 0 0
48 1 1 4.61415159764983 -12.4769547184425 9.69795506309096 0 0 0
49 1 1 5.4784647287690404 -12.978977343868198 9.52421021307533 0 0 0
50 1 1 6.020483126742059 -12.757926261294301 8.77677894307098 0 0 0
51 1 1 6.719988679229401 -13.4693851056406 8.7295279854449 0 0 0
52 1 1 6.093252660499389 -14.179563734853199 8.658840356091991 0 0 0
53 1 1 5.16737599012831 -14.029012150852498 8.45339307743691 0 0 0
54 1 1 5.76009146553846 -13.9135929276155 7.703354593409459 0 0 0
55 1 1 5.6385511381054805 -13.0815193827691 7.37698031655222 0 0 0
56 1 1 6.57105241298605 -13.050223895908802 7.18405816233017 0 0 0
57 1 1 7.34699490959532 -12.456593495292001 7.11641312481633 0 0 0
58 1 1 6.9842964260754 -12.1004221315838 6.35103357754211 0 0 0
59 1 1 6.21421427360345 -12.039543973129598 5.721414011024231 0 0 0
60 1 1 5.95684766001703 -12.109808119252698 4.84202816800981 0 0 0
61 1 1 6.48643885973121 -12.9269186257885 5.01604967952959 0 0 0
62 1 1 7.366569426883039 -12.6088321453889 5.32524458257889 0 0 0
63 1 1 7.881121725024969 -12.012925678589001 5.939300176570491 0 0 0
64 1 1 7.19856872661334 -11.523042979210599 5.50890345912807 0 0 0
65 1 1 6.55657688912786 -10.911490344625498 5.1555917741460995 0 0 0
66 1 1 7.51284362182134 -10.710236149262698 4.89764947984246 0 0 0
67 1 1 7.03925415128268 -11.189061340915599 4.2449654416055 0 0 0
68 1 1 7.28880846224329 -12.1156688251603 4.457970275293599 0 0 0
69 1 1 7.876677871464651 -11.525478605776401 3.8715893686123697 0 0 0
70 1 1 8.800256630332699 -11.337712415481 4.0241175271402 0 0 0
71 1 1 9.39555233400367 -11.7504709555813 3.3366901008295 0 0 0
72 1 1 9.74623378273656 -12.65194066422 3.52631219932925 0 0 0
73 1 1 9.71944215578277 -12.9520736981016 4.4265796472415 0 0 0
74 1 1 10.4944831483524 -13.5003038502773 4.5727776116479095 0 0 0
75 1 1 10.0505959899969 -13.8599936751858 5.32381689203953 0 0 0
76 1 1 9.13223137453651 -13.7501923275316 5.00443909586772 0 0 0
77 1 1 9.597849752014831 -14.248612415013302 4.35417634575277 0 0 0
78 1 1 9.80101779924242 -14.5197469690642 3.5120927414088197 0 0 0
79 1 1 10.357815672523401 -13.821007038580401 3.6973294374443 0 0 0
80 1 1 11.0663154161718 -13.310657856426198 3.3672393845540203 0 0 0
81 1 1 10.940422168366 -12.375735583708598 3.21630559021002 0 0 0
82 1 1 10.393428853113 -11.8376206821013 3.81934681830589 0 0 0
83 1 1 9.69143838467421 -11.827914472403 4.441483227392901 0 0 0
84 1 1 10.4794052927546 -11.2430847185423 4.79298847037715 0 0 0
85 1 1 11.1598741873543 -11.759989790894599 4.42116211978633 0 0 0
86 1 1 11.676341101891401 -11.9172674805083 3.62747628795371 0 0 0
87 1 1 11.528070408113502 -11.4723919108709 2.75185348545446 0 0 0
88 1 1 11.7379248790588 -12.4217177610252 2.53151755211499 0 0 0
89 1 1 12.5871875659795 -12.3603486450986 2.9287335902391805 0 0 0
90 1 1 12.0853340383569 -12.968083406757698 3.4065177979687102 0 0 0
91 1 1 12.442233342018001 -13.8860372381126 3.49120511789793 0 0 0
92 1 1 11.6480184042068 -14.1464620413827 3.0813605185888497 0 0 0
93 1 1 11.473277698387802 -14.8645174423662 2.49605404194958 0 0 0
94 1 1 10.625716624236698 -14.829761736346299 2.9801870141429903 0 0 0
95 1 1 9.936570750737788 -15.325249481120698 2.60315784823935 0 0 0
96 1 1 9.85857424648229 -16.2784763682004 2.5878832056505896 0 0 0
97 1 1 9.59030940090662 -16.315912045620802 1.7115630936078 0 0 0
98 1 1 9.51097783276573 -16.1767953716044 0.746635473907112 0 0 0
99 1 1 8.67069909627803 -16.682088525669197 1.0362339536858398 0 0 0
100 1 1 8.68498888710896 -16.5044593512207 0.05460136683529271 0 0 0
101 1 1 8.51754922062165 -17.1958742488453 -0.574686287308474 0 0 0
102 1 1 8.71172065779354 -17.7315715467389 0.252497300520517 0 0 0
103 1 1 9.56893053354222 -17.718288717013102 -0.0867072011910146 0 0 0
104 1 1 10.228255544562 -17.592071052140998 0.7000270560662081 0 0 0
105 1 1 10.554614193610801 -17.8993344617793 -0.14244084690219294 0 0 0
106 1 1 11.1239559294085 -18.2290472225831 0.540636024540063 0 0 0
107 1 1 11.963577995069 -18.130948926573502 0.9957904477891619 0 0 0
108 1 1 12.456762923912699 -18.757577285571003 0.47520521495932 0 0 0
109 1 1 12.3289535545136 -19.4699876597009 -0.13177080402978802 0 0 0
110 1 1 13.2487661213607 -19.503967553663703 0.281512707202509 0 0 0
111 1 1 13.531943698205499 -18.6023049560645 0.5991831557076489 0 0 0
112 1 1 14.2264199897523 -19.2317416705099 0.536283451887201 0 0 0
113 1 1 14.468080494683699 -19.113531851409 1.4681739262341003 0 0 0
114 1 1 15.007756119779199 -19.8076861101551 1.01045145705973 0 0 0
115 1 1 14.487335499874598 -20.4986721260792 1.28786671578375 0 0 0
116 1 1 14.9857274552844 -20.9853066033284 2.0028529365679897 0 0 0
117 1 1 15.571490707690199 -21.3754869173266 2.6892956284835203 0 0 0
118 1 1 15.4269310974307 -21.257538929073903 3.65250283680979 0 0 0
119 1 1 15.494118440007998 -20.2896157192556 3.5215867516675603 0 0 0
120 1 1 15.9975501841843 -20.3311832609093 2.73035826870237 0 0 0
121 1 1 16.5616197119686 -20.418771590853698 3.5291244056877 0 0 0
122 1 1 16.4067148421519 -20.3728333708264 4.49804982139673 0 0 0
123 1 1 16.5659131770752 -20.373644890262497 5.4984555758712 0 0 0
124 1 1 16.3036701777588 -19.450385682199 5.62442000370023 0 0 0
125 1 1 15.579816308735099 -19.0450560732044 5.15757139457846 0 0 0
126 1 1 15.510156987425198 -18.0254205437816 5.144164739350161 0 0 0
127 1 1 16.2665006136582 -18.048319567545796 4.597159542162941 0 0 0
128 1 1 16.7420691707288 -19.044534523255102 4.7798685890392 0 0 0
129 1 1 16.793319757144 -18.354169895501002 5.4493910589335 0 0 0
130 1 1 16.7907874201299 -17.3782577305416 5.31407839068359 0 0 0
131 1 1 16.8161270769469 -16.4546084754355 5.30429134823327 0 0 0
132 1 1 17.1712828613154 -16.9301718951137 6.07040307876675 0 0 0
133 1 1 18.0592222512543 -16.9723370389274 5.69897900413893 0 0 0
134 1 1 17.860440002582198 -17.9573604382702 5.63093338674311 0 0 0
135 1 1 17.2509768335182 -17.9355610725848 6.3395463150178495 0 0 0
136 1 1 17.903817706994 -18.5594805871245 6.541899447077861 0 0 0
137 1 1 18.749508343638407 -18.8194494046732 6.19254235133069 0 0 0
138 1 1 18.980982805901405 -18.1441779636609 5.61102626565874 0 0 0
139 1 1 18.919689130211005 -17.3966397173591 5.03611573272115 0 0 0
140 1 1 19.633230304724304 -17.2194755471769 5.62237100672964 0 0 0
141 1 1 19.821630709750305 -16.738511168816302 6.421372462780661 0 0 0
142 1 1 19.463686714419005 -16.0680313374525 7.042453918689731 0 0 0
143 1 1 20.126761476739805 -16.407910037016197 7.61816687047317 0 0 0
144 1 1 19.664784566901105 -17.116754577560698 8.00998086333771 0 0 0
145 1 1 18.791211313595905 -16.6742392211092 7.71022310518472 0 0 0
146 1 1 18.434048839936107 -16.0500384109155 7.118150740678701 0 0 0
147 1 1 18.772425169851203 -15.839423973480198 6.2004511174218795 0 0 0
148 1 1 17.8924324705947 -15.527126747827301 6.023587453135719 0 0 0
149 1 1 17.496038595473898 -14.653695084737802 6.16117732473289 0 0 0
150 1 1 17.371251813778 -15.2303985941909 6.87282990124066 0 0 0
151 1 1 16.6674503010947 -15.8779621794189 7.07510054137426 0 0 0
152 1 1 16.7754925321182 -15.696511676696101 6.07125177727679 0 0 0
153 1 1 15.955943768957699 -15.093379786781599 6.3326857538814805 0 0 0
154 1 1 16.5659340809441 -14.3463885237737 6.03663332763226 0 0 0
155 1 1 15.7222005753604 -14.107802246923198 5.59704405942199 0 0 0
156 1 1 14.727293140020402 -14.0122767986904 5.579012954142599 0 0 0
157 1 1 14.8629714435785 -13.3175403513689 6.30091508724532 0 0 0
158 1 1 14.037377035952101 -13.6521719848472 6.5396771265519 0 0 0
159 1 1 14.131003651733598 -14.3537490325702 7.15517590038605 0 0 0
160 1 1 14.613045766778901 -14.931448009725301 6.456443710726889 0 0 0
161 1 1 14.0239079258743 -14.814046833607302 5.63181435622555 0 0 0
162 1 1 13.3723067156476 -15.542778870167902 5.3064870821181795 0 0 0
163 1 1 13.421062424707 -16.4285537591032 5.81999132057773 0 0 0
164 1 1 13.6419982311709 -15.6688091297997 6.4446828723991505 0 0 0
165 1 1 13.3074405356019 -15.499472125778501 7.34426487821522 0 0 0
166 1 1 12.674393463239 -15.229852593193 6.74803056631373 0 0 0
167 1 1 11.921923297507801 -14.717807571256099 6.55709550084577 0 0 0
168 1 1 11.4329413365259 -15.522181988092699 6.8747937116810895 0 0 0
169 1 1 11.707644486487698 -16.1007877256479 6.142030249031331 0 0 0
170 1 1 12.5180785118069 -16.3973858006857 6.56878186983621 0 0 0
171 1 1 12.546786809108 -17.2998426290625 6.6173156260587005 0 0 0
172 1 1 13.4367212237156 -17.2946370258431 6.99611643363536 0 0 0
173 1 1 14.0529672304457 -17.964484439775802 6.64170879114089 0 0 0
174 1 1 14.459447659155 -17.775561131438103 7.473173294423961 0 0 0
175 1 1 14.9698299925271 -17.2141345731356 6.840428004998901 0 0 0
176 1 1 15.4148009113826 -18.0139543246102 7.06165482303695 0 0 0
177 1 1 16.1911245846143 -17.6845935863029 7.46321918282384 0 0 0
178 1 1 16.7864874173749 -18.0207973767581 8.254865340301679 0 0 0
179 1 1 17.114077222003502 -17.2923544048914 7.745259674980849 0 0 0
180 1 1 17.670373319787 -17.291282394883098 8.49270004117341 0 0 0
181 1 1 17.2626507226661 -16.8887973921061 9.210292970298081 0 0 0
182 1 1 17.6087633196315 -17.713904617276498 9.60883553729104 0 0 0
183 1 1 17.4955524258144 -17.0034648423374 10.2576461104647 0 0 0
184 1 1 17.1711108641104 -16.1698225761882 10.0080240566813 0 0 0
185 1 1 16.6885483548375 -15.3636586093462 9.70155177944266 0 0 0
186 1 1 16.2903166549514 -14.552845603505302 10.133744158768 0 0 0
187 1 1 16.5496359559555 -15.000083013185401 10.9160130197837 0 0 0
188 1 1 16.6555673238857 -15.232490826492 11.874074301007099 0 0 0
189 1 1 16.1734510927046 -14.977070586987299 12.6695940941048 0 0 0
190 1 1 15.8158362567734 -15.8448722843799 12.3663850530376 0 0 0
191 1 1 16.393837776607498 -16.4079931861689 11.7551864950242 0 0 0
192 1 1 16.5832811478992 -17.3386695459457 12.0476563812537 0 0 0
193 1 1 16.76777452574 -17.0418997465437 12.9235624603773 0 0 0
194 1 1 16.3372599855946 -17.174378016624 13.7521963436358 0 0 0
195 1 1 15.811811813972799 -17.952895042503 13.6097633161304 0 0 0
196 1 1 15.2245991897174 -18.603991199378196 13.1043352981373 0 0 0
197 1 1 14.3137158091132 -18.466297144249097 13.1099627817395 0 0 0
198 1 1 13.404390327098598 -18.449065941286197 12.7932590853374 0 0 0
199 1 1 13.372172333958002 -18.5272625985656 11.807560776683399 0 0 0
200 1 1 13.041105665073301 -17.5982250100668 11.805501472597802 0 0 0
201 1 1 13.6979222021121 -17.479831905049796 11.0997759770358 0 0 0
202 1 1 13.4393709142715 -18.1269276365518 10.284813557128 0 0 0
203 1 1 13.9182856383661 -18.5331054246262 10.979558164214803 0 0 0
204 1 1 14.814298309880801 -18.4634102663702 11.270554835197698 0 0 0
205 1 1 14.345221390632501 -19.168835986036 11.828546678420201 0 0 0
206 1 1 15.2528437945715 -18.9828617171283 11.997686410501098 0 0 0
207 1 1 16.1554051817821 -18.6829071949298 12.174837723701401 0 0 0
208 1 1 16.2577928193401 -18.032409216049704 12.792601354426598 0 0 0
209 1 1 17.1600681058344 -18.252350609990504 12.6540692848042 0 0 0
210 1 1 17.7122456385809 -17.471076233541698 12.7610211196441 0 0 0
211 1 1 17.9709764468437 -17.2407653865661 13.6361582232499 0 0 0
212 1 1 17.910158138544 -16.237340957911 13.6257517453468 0 0 0
213 1 1 17.2252072642383 -16.3909467533869 14.2631553028812 0 0 0
214 1 1 16.5120737219162 -15.8331007014722 13.9862376929273 0 0 0
215 1 1 16.689439582577 -15.818653008083698 13.0894142375958 0 0 0
216 1 1 17.1389986613693 -15.070941399292801 13.5597421789363 0 0 0
217 1 1 18.0761844713426 -14.863130606988802 13.385760471468599 0 0 0
218 1 1 18.320762038993003 -14.055176511187401 12.930542528420698 0 0 0
219 1 1 19.063775528800004 -13.4357029632857 13.1188586177964 0 0 0
220 1 1 20.003499753000803 -13.1372069794173 13.152950286877802 0 0 0
221 1 1 19.5912146820052 -12.309926769154698 12.7936574116061 0 0 0
222 1 1 19.5125656914127 -13.0641836615749 12.212691471777198 0 0 0
223 1 1 19.811349397468 -12.5360873347482 11.524922366108001 0 0 0
224 1 1 19.4275794763055 -11.7954939106581 11.928629176002 0 0 0
225 1 1 18.6767734415397 -11.230040578239601 11.688039444072 0 0 0
226 1 1 18.4836934765414 -10.4020501167387 12.0853058834053 0 0 0
227 1 1 18.8037826296239 -9.69201207806424 11.565339375110199 0 0 0
228 1 1 18.9574938218885 -10.454321832810699 10.9696459380352 0 0 0
229 1 1 18.3520688239767 -10.5671700773987 10.2259857754056 0 0 0
230 1 1 17.752627612225602 -9.95836769223289 9.835077913543 0 0 0
231 1 1 16.898337802269 -9.59607220545632 10.0411805202867 0 0 0
232 1 1 17.0894822758141 -10.4146994490794 10.431734601822198 0 0 0
233 1 1 17.5679051117098 -11.291796071268001 10.3681178667525 0 0 0
234 1 1 17.2498713620109 -11.965929061284099 11.055155067225803 0 0 0
235 1 1 16.578815690836 -11.9443146900248 10.3648294955712 0 0 0
236 1 1 16.6487107422065 -11.224911453641301 9.76938834268886 0 0 0
237 1 1 16.9248817364475 -11.7548158038622 8.980939645407279 0 0 0
238 1 1 17.5953756929716 -12.3763441002336 8.57864571706818 0 0 0
239 1 1 16.8575023051728 -12.170569456404701 7.958745359433951 0 0 0
240 1 1 16.0255798506692 -11.9817425559638 8.32164021205808 0 0 0
241 1 1 15.7994354327883 -12.4523030037972 7.455909655896961 0 0 0
242 1 1 15.6389299345326 -13.1172606586343 8.23574634422015 0 0 0
243 1 1 14.8747815080055 -13.7171126330093 8.4125205180616 0 0 0
244 1 1 14.8982811643509 -13.4216390269029 7.4941239158500705 0 0 0
245 1 1 14.278920656204901 -12.7092921587232 7.4443761267878905 0 0 0
246 1 1 14.8236602475524 -12.1026974969729 7.920705052412679 0 0 0
247 1 1 14.1729960340849 -12.5127393573333 8.47657347064018 0 0 0
248 1 1 13.8937485813821 -11.6566664757642 8.29268735950372 0 0 0
249 1 1 13.2825498606701 -10.935643427248001 8.68272693344902 0 0 0
250 1 1 12.641280893188698 -11.6479518278821 8.65086933519549 0 0 0
251 1 1 13.2047128199711 -11.720164560733302 9.42508286040558 0 0 0
252 1 1 14.0621115128109 -11.6193624757701 9.80487863750361 0 0 0
253 1 1 14.0516042607935 -11.735903841938601 10.7573156146823 0 0 0
254 1 1 14.2854997428333 -12.6254486642642 10.5404746702517 0 0 0
255 1 1 13.365710659094802 -12.7942670761025 10.741342047996199 0 0 0
256 1 1 12.6631849223195 -13.3584447128269 10.9715692190986 0 0 0
257 1 1 13.463275459473698 -13.782543156194901 10.5334765649653 0 0 0
258 1 1 13.9150089832762 -14.470355830153 10.0368325522148 0 0 0
259 1 1 13.9962965607451 -14.752640075980699 10.9086239905845 0 0 0
260 1 1 14.326510727674698 -15.618707407646802 11.1928667394033 0 0 0
261 1 1 13.9823229666659 -16.5217980745913 11.1570911143906 0 0 0
262 1 1 13.685750927392302 -16.297783654405 10.3258608928978 0 0 0
263 1 1 13.0441968977849 -15.926963440966698 10.9236886425809 0 0 0
264 1 1 12.232940413165801 -16.296953112012 10.6683794263944 0 0 0
265 1 1 12.536679038396098 -15.914810296141601 9.83088672080521 0 0 0
266 1 1 13.0152334774086 -15.4688497159943 9.146287271552561 0 0 0
267 1 1 13.535822774833 -15.3431830360325 9.9406805545124 0 0 0
268 1 1 14.5511630354913 -15.3895713219242 9.9960188246031 0 0 0
269 1 1 15.3534498993871 -15.180800893226198 10.5076293580906 0 0 0
270 1 1 15.6335675738031 -15.5417794355246 11.3881196332226 0 0 0
271 1 1 15.0538159504677 -15.035834971597199 11.9884266610781 0 0 0
272 1 1 14.979555461810401 -14.5189407836554 11.2061933946015 0 0 0
273 1 1 14.9198820367944 -13.716778499471399 10.6655347027941 0 0 0
274 1 1 15.1030891968964 -14.290978801043199 9.96781778235773 0 0 0
275 1 1 14.5055781132075 -13.722941084382999 9.49124075338504 0 0 0
276 1 1 14.249874299939401 -14.4783981674914 8.93146795462101 0 0 0
277 1 1 14.132669925237598 -15.0826436127617 8.19324150684278 0 0 0
278 1 1 14.985293545913501 -14.7612344134481 8.136500691425361 0 0 0
279 1 1 15.277516847025002 -15.374865469171901 7.46676763683398 0 0 0
280 1 1 16.1903516263856 -15.4987455100192 7.827558401256 0 0 0
281 1 1 16.601362283526303 -15.542434851578902 8.70593803428655 0 0 0
282 1 1 16.6471721850122 -16.3997680833655 8.33605328572097 0 0 0
283 1 1 16.3064639610184 -17.1493961425489 8.742299071056 0 0 0
284 1 1 15.9525325711596 -16.3478117247649 9.078891282607199 0 0 0
285 1 1 15.1321817653695 -15.853725749548198 9.00241466514147 0 0 0
286 1 1 15.5475489704125 -15.018631517003099 9.245284462587321 0 0 0
287 1 1 15.6462923674604 -14.035135509287 9.08717548416622 0 0 0
288 1 1 16.2111114929417 -14.5435996802494 8.5007790282097 0 0 0
289 1 1 17.1026185879982 -14.229248891719301 8.38522221488787 0 0 0
290 1 1 17.0022053738449 -14.1772983833974 9.365300291914778 0 0 0
291 1 1 17.4372340519187 -13.6171454635986 9.987755790065211 0 0 0
292 1 1 17.313376207512 -12.676250086868901 9.939042903444971 0 0 0
293 1 1 17.674384322922002 -13.0134647625665 10.784134917177001 0 0 0
294 1 1 18.382541460042106 -12.888474520708598 11.4059903065671 0 0 0
295 1 1 18.6314984361327 -12.021966981840599 11.0693210114021 0 0 0
296 1 1 18.887890913593402 -11.3795645037961 10.383134207989698 0 0 0
297 1 1 19.7372607600638 -10.949077963138098 10.4366262641128 0 0 0
298 1 1 19.851171664742203 -11.6961840427305 9.85676584670456 0 0 0
299 1 1 20.702164745988604 -11.6792244217683 9.413916172438741 0 0 0
300 1 1 21.406333539277703 -11.786937034643 9.988105224592159 0 0 0
301 1 1 21.477699858158907 -11.9327024441236 11.013161197766399 0 0 0
302 1 1 21.433132159647908 -12.142858483517198 11.929089623886002 0 0 0
303 1 1 20.55149433648591 -11.842145078017198 11.9912065416445 0 0 0
304 1 1 20.61897778006501 -12.624159596532099 12.4958108459338 0 0 0
305 1 1 21.49685058126051 -13.0233414534811 12.5537477338359 0 0 0
306 1 1 21.23582675697441 -12.516721261386198 13.382864690917302 0 0 0
307 1 1 21.37576275468981 -13.4146141795769 13.665873268504699 0 0 0
308 1 1 21.30526030640391 -14.3749690962026 13.383975086897 0 0 0
309 1 1 20.443547597062306 -14.8195175567924 13.6171712272721 0 0 0
310 1 1 20.719913580276206 -15.6111037619489 14.0960800738287 0 0 0
311 1 1 21.587883087741705 -15.2517452217941 13.9503000328779 0 0 0
312 1 1 21.432518667707605 -15.364690251486099 14.874894416803699 0 0 0
313 1 1 21.915472937881006 -16.155882072209998 14.645914467885401 0 0 0
314 1 1 21.386609716420306 -16.646816206667303 15.298871974442198 0 0 0
315 1 1 20.843250102656306 -17.4772446049693 15.341340648094098 0 0 0
316 1 1 20.320308669464907 -17.6953713915318 14.537912857244802 0 0 0
317 1 1 20.501206959011405 -16.7587001515463 14.4741094810015 0 0 0
318 1 1 21.286990737129905 -16.6979407394937 13.9942970321969 0 0 0
319 1 1 22.182206130566804 -17.096132561556598 14.0192649830972 0 0 0
320 1 1 21.702238672749605 -17.5131251214721 14.7647989955273 0 0 0
321 1 1 22.149078360574006 -17.4859340668142 15.554912531410402 0 0 0
322 1 1 22.793381223231307 -17.8218831324121 14.917107169593999 0 0 0
323 1 1 22.335734703689006 -18.6799565763237 14.761204391622801 0 0 0
324 1 1 22.015700821439204 -18.816832959103003 15.6265133087367 0 0 0
325 1 1 21.748743054398204 -19.227765605525402 16.518944150132597 0 0 0
326 1 1 21.378613512496106 -18.3581262369937 16.570124551995498 0 0 0
327 1 1 20.78449010094851 -19.0403761960886 16.7828322327122 0 0 0
328 1 1 20.65139292826511 -18.759711538783602 17.6636748137569 0 0 0
329 1 1 19.786621214687507 -18.3490302870634 17.833916164248397 0 0 0
330 1 1 19.568743755584407 -19.2698500608147 17.9567406366034 0 0 0
331 1 1 18.87075845738351 -18.8702625730834 17.4771424844037 0 0 0
332 1 1 18.67588403768641 -19.760302421564102 17.5777333644471 0 0 0
333 1 1 17.937505709863906 -19.212502098373403 17.711502966223396 0 0 0
334 1 1 17.128716593544006 -19.2668566056056 17.1618671077441 0 0 0
335 1 1 17.702272075838106 -18.552992858121105 16.8714603073108 0 0 0
336 1 1 18.42398441744361 -17.960010019236396 17.2244724816081 0 0 0
337 1 1 18.83110277470851 -17.4863234797016 16.4393953804884 0 0 0
338 1 1 18.69406222075201 -16.6365757646719 15.9757990857731 0 0 0
339 1 1 19.218171065692207 -17.1810409597402 15.363072900601 0 0 0
340 1 1 19.52483888176601 -16.5575204729922 14.6575233520999 0 0 0
341 1 1 19.09508430701331 -17.4023545706371 14.2813019586894 0 0 0
342 1 1 18.26146634746411 -17.6132826819978 14.6395079583638 0 0 0
343 1 1 18.47274166661721 -16.6733145213313 14.797907514698698 0 0 0
344 1 1 18.222618536974807 -15.7641709263376 14.822140776024 0 0 0
345 1 1 17.47727860349221 -15.919559537705199 15.3450754670615 0 0 0
346 1 1 16.946508793645606 -15.1998595592746 15.7983167362574 0 0 0
347 1 1 16.420876683649706 -14.4571677316783 15.6444763554035 0 0 0
348 1 1 15.885775298723006 -13.671906618423801 15.7714166457155 0 0 0
349 1 1 15.645209721767008 -12.862963737915402 16.2430312772212 0 0 0
350 1 1 16.61106647813681 -12.8689068444377 16.266204017124902 0 0 0
351 1 1 17.45067505086491 -12.495982445415699 16.0892473363344 0 0 0
352 1 1 18.037295800214704 -12.121224912163598 16.780585524421802 0 0 0
353 1 1 18.58494725456971 -12.523018832467699 16.0186829217018 0 0 0
354 1 1 18.068173813422003 -13.3034479647307 16.0863895707686 0 0 0
355 1 1 17.240941171330203 -13.7080804088745 16.2923860343029 0 0 0
356 1 1 17.655576567700702 -13.714343760785198 17.174224771229998 0 0 0
357 1 1 18.3024286197117 -13.0299623994646 17.220103425041 0 0 0
358 1 1 17.5924597621197 -12.6791465662165 17.7173580055394 0 0 0
359 1 1 16.7748810442891 -13.134167274376301 17.3308585259094 0 0 0
360 1 1 15.9065304462642 -12.769793160062198 17.5257441623398 0 0 0
361 1 1 15.219796067411 -12.135672440832698 17.5711810071031 0 0 0
362 1 1 14.6734729189627 -11.9050482405556 18.30786270617231 0 0 0
363 1 1 14.0427510517633 -12.231717054687 17.659294056514206 0 0 0
364 1 1 14.2911093602207 -11.8804568757937 16.769723255141407 0 0 0
365 1 1 15.072461968217599 -11.6837627376774 16.279760645740105 0 0 0
366 1 1 14.456460880240199 -11.8810748389755 15.569333770409507 0 0 0
367 1 1 14.168267678800499 -12.680175193570301 15.968419699624206 0 0 0
368 1 1 14.7629346286209 -13.392548267788 16.19151591539361 0 0 0
369 1 1 15.171354895376501 -13.37122910314 17.086968049515008 0 0 0
370 1 1 16.015146199043098 -13.8177430343544 17.42685040638751 0 0 0
371 1 1 16.2959793930422 -13.996196196942599 16.555748298506106 0 0 0
372 1 1 16.783587552114 -14.7017662616216 16.89823836426691 0 0 0
373 1 1 16.6935505771611 -14.545162154828802 17.858297115779905 0 0 0
374 1 1 17.647158854477 -14.6738940622575 17.838502461773704 0 0 0
375 1 1 17.263738009176 -15.473812089724 17.483748774708307 0 0 0
376 1 1 18.2162421392735 -15.528578202759302 17.411502493296606 0 0 0
377 1 1 18.4915744335274 -16.4202246572248 17.066395122895607 0 0 0
378 1 1 19.416405843330903 -16.2784263762427 16.674204751292606 0 0 0
379 1 1 19.278386853398903 -15.914339698675402 17.529501994162707 0 0 0
380 1 1 19.0154775992025 -15.149979329990499 18.06327501577101 0 0 0
381 1 1 18.6623933900357 -15.0968082772992 19.001235731071812 0 0 0
382 1 1 18.9970828021362 -15.688787591191499 19.768666059246012 0 0 0
383 1 1 18.1625809593932 -15.259206547851901 19.906122790946313 0 0 0
384 1 1 17.768866596334394 -14.8433178442206 20.68073723594641 0 0 0
385 1 1 16.853692993684096 -14.8881298316238 20.859259615642408 0 0 0
386 1 1 16.613765863498795 -14.292828939312901 21.52970706941091 0 0 0
387 1 1 15.900711460521997 -13.660004350566302 21.506637157537313 0 0 0
388 1 1 15.434486711714495 -12.812199605959401 21.65419556478731 0 0 0
389 1 1 15.876056506837298 -12.4539312181275 20.84327044638471 0 0 0
390 1 1 16.7096964783754 -12.0741633084325 20.813771483258012 0 0 0
391 1 1 16.767385969181895 -11.4058462194907 20.16179412420531 0 0 0
392 1 1 17.670641313058393 -11.019318479907401 20.23140809943251 0 0 0
393 1 1 17.684122578329895 -11.5243241307492 19.444650233739413 0 0 0
394 1 1 18.182205480344994 -10.732057246640402 19.24472288843361 0 0 0
395 1 1 17.406828547093294 -10.1461061920859 19.283937561820412 0 0 0
396 1 1 18.268215953716098 -9.700900792636869 19.586752358894113 0 0 0
397 1 1 17.43492595529219 -9.24853496473648 19.778927522398213 0 0 0
398 1 1 17.929964933964893 -8.81546333678972 19.04618347568381 0 0 0
399 1 1 17.856115791488595 -8.00617344365366 18.593383913280814 0 0 0
400 1 1 18.453259559447194 -7.3818824105321506 19.08252188018751 0 0 0
401 1 1 -9.88332471602328 9.88334630285774 6.307943918926769 0 0 0
402 1 1 -10.5507169719736 10.220261234659901 5.74879724369647 0 0 0
403 1 1 -11.137098809368801 10.522674974199901 5.05880591959262 0 0 0
404 1 1 -11.2238038562132 11.1298187867997 5.81778357341459 0 0 0
405 1 1 -11.3729558862106 11.515857737166801 4.96310497206513 0 0 0
406 1 1 -11.9017474321855 12.3250452439445 5.017115858055821 0 0 0
407 1 1 -12.2070636590866 11.5869546575965 5.554201606574429 0 0 0
408 1 1 -12.5276927030299 10.769262474247599 5.96110001513916 0 0 0
409 1 1 -11.773706422641899 10.160456001313 6.020409175677611 0 0 0
410 1 1 -12.2338989309322 10.1070408407802 5.1920512400191905 0 0 0
411 1 1 -11.660829715476401 9.975721808060651 4.41868808901944 0 0 0
412 1 1 -11.582985504038401 10.079833193577599 3.40480911319938 0 0 0
413 1 1 -11.959630607048302 10.038969717606 2.49623036144918 0 0 0
414 1 1 -11.710144865318101 10.3916859948331 1.55332300467981 0 0 0
415 1 1 -11.9122276490132 11.0490524351676 2.2213656396282797 0 0 0
416 1 1 -12.606891511077098 10.836719242516198 1.63217957632772 0 0 0
417 1 1 -13.3251541908676 11.4890615787015 1.5511120950468 0 0 0
418 1 1 -13.463340417353802 10.756773523285199 0.961318333031006 0 0 0
419 1 1 -13.6891972128144 11.542410706035099 0.42001256759234096 0 0 0
420 1 1 -13.177934773745502 11.4551399452798 -0.37896591734362395 0 0 0
421 1 1 -13.5406248444318 11.738880194220199 -1.20574497783452 0 0 0
422 1 1 -13.161135988022 12.5053508681582 -0.8547648578299379 0 0 0
423 1 1 -12.728126016696999 13.3256474378519 -0.9714920876563871 0 0 0
424 1 1 -12.9527344126778 14.315503603840599 -1.1159755818761001 0 0 0
425 1 1 -12.3068976065921 14.0834325699604 -0.291228976057777 0 0 0
426 1 1 -12.162139541395801 13.187297944612201 -0.012235187301588013 0 0 0
427 1 1 -12.0328989577888 12.5033469089203 -0.6378605172858299 0 0 0
428 1 1 -11.9422509008095 11.5906968910106 -0.88635123343245 0 0 0
429 1 1 -12.4233874279616 10.794765384933902 -0.72609611457386 0 0 0
430 1 1 -11.9514102043719 11.140423189612902 0.05092395870860855 0 0 0
431 1 1 -12.624960498278 10.493917129073 0.29621617018168295 0 0 0
432 1 1 -12.1308986109324 9.76576941952469 0.717224970846502 0 0 0
433 1 1 -11.817818609465 9.39856158894877 1.61285315157926 0 0 0
434 1 1 -12.696048215697598 9.76023886729487 1.6418467234860603 0 0 0
435 1 1 -12.747033224858699 8.94995925663161 2.10021716944403 0 0 0
436 1 1 -13.0098757105604 9.586178880546921 2.78316291794065 0 0 0
437 1 1 -13.7788283639589 9.170786193419241 3.13049454377229 0 0 0
438 1 1 -13.693667409395301 9.27155247380642 2.17800623361259 0 0 0