Read Attempt, after unfolding 
4000 atoms
3900 bonds
0 dihedrals
0 impropers
1 atom types
1 bond types
-8.4119549 8.4119549 xlo xhi
-8.4119549 8.4119549 ylo yhi
-8.4119549 8.4119549 zlo zhi
0 0 0 xy xz yz

Atoms

1 1 1 0.01230830712272635 -3.24976280760404 -1.6460971920465202 0 0 0
2 1 1 0.602008544354984 -4.01664463976082 -1.78902865980865 0 0 0
3 1 1 -0.246669510121166 -4.26319333632283 -2.1552607651589297 0 0 0
4 1 1 -0.6550618597525101 -4.68555166047458 -2.8538090923900197 0 0 0
5 1 1 -0.8043979905532042 -5.4968737931182 -3.3155160569865902 0 0 0
6 1 1 -0.9402866044542 -5.265690807507481 -4.216895942797709 0 0 0
7 1 1 -0.012236931218540192 -5.24309405245416 -3.8980986331812204 0 0 0
8 1 1 0.7349292926440649 -5.86610628372813 -3.70906409833063 0 0 0
9 1 1 1.4088751464112401 -6.04507904694947 -3.03608394769674 0 0 0
10 1 1 1.32580915003534 -6.9876949726834 -3.13664735113425 0 0 0
11 1 1 1.48834759130888 -6.793815076265889 -4.08037254498105 0 0 0
12 1 1 1.36712588788737 -6.6177420899114505 -5.06222209016764 0 0 0
13 1 1 1.29279101927322 -5.603473119377151 -4.9641448590143495 0 0 0
14 1 1 1.56628808570728 -5.76981134646714 -5.86733398807725 0 0 0
15 1 1 1.95685700739962 -4.836401422130179 -5.947526100168459 0 0 0
16 1 1 2.79235425769392 -4.7184593101977805 -6.38800752169567 0 0 0
17 1 1 3.0995990948248 -3.84823281567077 -6.590153745401981 0 0 0
18 1 1 3.03503155123049 -3.95388504428609 -5.6550469211178696 0 0 0
19 1 1 3.2299155155337296 -3.64499983785866 -4.81856674046519 0 0 0
20 1 1 4.08372107762298 -3.2848459613110097 -5.126333620325361 0 0 0
21 1 1 4.02018155706638 -2.3763341220069 -5.47472079932218 0 0 0
22 1 1 3.89900730177595 -1.60748443998716 -4.938751996448441 0 0 0
23 1 1 4.570325966012169 -0.9966049498099259 -4.75565228653815 0 0 0
24 1 1 5.13172444948945 -0.30013359202117207 -5.10562677686241 0 0 0
25 1 1 5.32350489477208 -1.07608253365612 -5.5616745175948 0 0 0
26 1 1 5.94702615350813 -1.7880274387888402 -5.561514109846341 0 0 0
27 1 1 6.48601714415357 -2.58521816702883 -5.21124996595703 0 0 0
28 1 1 7.2274551713285895 -3.26050170114128 -5.1431606356738 0 0 0
29 1 1 6.58484267477214 -3.34611168565262 -5.88391691261154 0 0 0
30 1 1 5.76263547972591 -3.7046512484993195 -6.19760155946072 0 0 0
31 1 1 5.97882325727609 -2.8221773947722597 -6.51097309072886 0 0 0
32 1 1 5.544024895898461 -2.83975539701919 -5.642184284845389 0 0 0
33 1 1 5.080972960889129 -2.400774363785 -4.9131188777252595 0 0 0
34 1 1 4.456963068398941 -2.3010478619798 -4.14975305984314 0 0 0
35 1 1 5.30169272052643 -1.79555974576642 -4.027704535022 0 0 0
36 1 1 5.386397445661861 -2.7102590031737 -3.6562154159522198 0 0 0
37 1 1 6.22936216333543 -2.68715538761059 -4.15763377865634 0 0 0
38 1 1 6.33460017011977 -2.20842443497759 -3.3375230441851698 0 0 0
39 1 1 5.73073329955257 -2.4409170359289 -2.61261424714144 0 0 0
40 1 1 5.495831655081071 -2.7475277641700697 -1.69506129239443 0 0 0
41 1 1 -7.38802845255729 -6.619067652305599 -3.9522847840754403 0 0 0
42 1 1 -7.145190037941219 -5.990810828034039 -3.2246395492460493 0 0 0
43 1 1 -7.143190893553599 -6.047298659916249 -2.2270403953537 0 0 0
44 1 1 -8.06963591763331 -6.297319693313839 -2.52078571481696 0 0 0
45 1 1 -8.28362764665737 -6.22945737473011 -3.49095320077292 0 0 0
46 1 1 -8.92972343364094 -5.55695726848863 -3.66680578545551 0 0 0
47 1 1 -9.045729429775129 -6.24848236426069 -4.36071372627222 0 0 0
48 1 1 -9.646434055143748 -6.52058187055859 -3.6317564851504396 0 0 0
49 1 1 -10.2086074108216 -6.07606588820951 -4.26606944340016 0 0 0
50 1 1 -10.708356228065199 -5.974439376360531 -5.0204023855580004 0 0 0
51 1 1 -11.638502838326598 -6.052039868723639 -5.33813933708126 0 0 0
52 1 1 -12.15039709242269 -5.2200863124136605 -5.15741457932792 0 0 0
53 1 1 -12.81513620383953 -5.69248156506922 -4.63582100093541 0 0 0
54 1 1 -12.25633150766878 -6.397524062532231 -4.19159721606119 0 0 0
55 1 1 -11.602258714215239 -5.625971116006499 -4.127694523422851 0 0 0
56 1 1 -11.365881099344687 -4.75667767595128 -4.458110337166179 0 0 0
57 1 1 -10.556445466520698 -4.677606986888599 -3.89708484944825 0 0 0
58 1 1 -11.257738212705728 -4.11140502109192 -3.54671244297018 0 0 0
59 1 1 -11.754170572655127 -4.497784776045361 -2.81927617866609 0 0 0
60 1 1 -12.565667356916677 -4.0526677266004905 -2.4756542556042205 0 0 0
61 1 1 -13.033349315456327 -3.2181054325665497 -2.3695229496894 0 0 0
62 1 1 -12.678093344996437 -3.46658979755188 -1.5553058861614901 0 0 0
63 1 1 -12.072538621266867 -4.143797313107339 -1.53274337372172 0 0 0
64 1 1 -11.794465027483557 -5.0106514368049 -1.8224142063045001 0 0 0
65 1 1 -11.160861297368898 -5.75704498662225 -2.04441808602056 0 0 0
66 1 1 -10.816406313322346 -6.43365999212396 -2.66626574778968 0 0 0
67 1 1 -10.872963130500306 -5.93424066098866 -3.4618733399622 0 0 0
68 1 1 -11.729808877562988 -5.6826072640201195 -3.08317328230417 0 0 0
69 1 1 -12.570421479232968 -5.482970064171701 -2.5295276414881296 0 0 0
70 1 1 -12.542891250729967 -6.2976541519600095 -3.0339533520156197 0 0 0
71 1 1 -12.528420575857997 -7.255983541105139 -2.9692464827258 0 0 0
72 1 1 -11.628342829959028 -6.99484351196733 -3.0320587984170895 0 0 0
73 1 1 -11.309104782884546 -6.780955677419361 -3.91764564046641 0 0 0
74 1 1 -11.633117961054907 -6.94923295826949 -4.816507414225071 0 0 0
75 1 1 -11.682282908823977 -7.90713361193617 -5.028430489199 0 0 0
76 1 1 -11.585133601113867 -8.4372989723871 -4.25118314936752 0 0 0
77 1 1 -10.677630549282188 -8.656963565285912 -3.97258979028502 0 0 0
78 1 1 -11.208220857773478 -8.45658818143009 -3.19795545533456 0 0 0
79 1 1 -10.751909001907347 -8.0696697231435 -2.4197897573474902 0 0 0
80 1 1 -10.234443985400357 -7.6875828614351205 -1.72286507697155 0 0 0
81 1 1 2.3717273288646803 -1.90819524341875 6.976951044239 0 0 0
82 1 1 1.9486712693343702 -2.7807326234508105 7.021543354365 0 0 0
83 1 1 1.74160350028743 -2.30594122876243 6.1671832702776905 0 0 0
84 1 1 0.853301367382647 -2.4950666443549503 6.60075337441203 0 0 0
85 1 1 -0.015716680309861175 -2.90380366481307 6.569309364436299 0 0 0
86 1 1 -0.15664314835945498 -2.19375605010554 7.21176190338444 0 0 0
87 1 1 0.06962863174954137 -1.63332492524131 6.3737932987392 0 0 0
88 1 1 0.45067058043620506 -1.5967789371721102 5.453069111579291 0 0 0
89 1 1 -0.30227108148003595 -1.4377714538660202 4.9313215670417 0 0 0
90 1 1 -1.11912237773467 -1.15506890802848 4.5409473389139805 0 0 0
91 1 1 -1.92489650186876 -0.822862637792467 4.2846983520107695 0 0 0
92 1 1 -2.3549756508133197 -1.504402994679 4.77095942618318 0 0 0
93 1 1 -2.45169763415706 -0.66112555958828 5.19086144471159 0 0 0
94 1 1 -3.1293047674767704 -0.7163065753898381 4.538059079320179 0 0 0
95 1 1 -2.78037425777628 -1.2526228616077 3.81110954179828 0 0 0
96 1 1 -2.06134196708754 -1.6828815089155502 3.2642014486646 0 0 0
97 1 1 -1.15662748129692 -1.68914523677771 3.66462401675318 0 0 0
98 1 1 -0.797252646342359 -2.51511014879995 4.01324537005193 0 0 0
99 1 1 -1.12618541610592 -3.13466900735231 4.66793042139382 0 0 0
100 1 1 -1.1602501683951 -3.45945498137079 3.80779281074452 0 0 0
101 1 1 -1.1327315961250901 -3.68721613734524 2.91969312041076 0 0 0
102 1 1 -1.15969299005772 -2.6928088327059503 3.0802193719072903 0 0 0
103 1 1 -1.27205971356422 -2.63091307001063 2.11086185747648 0 0 0
104 1 1 -1.5115136024545 -1.7344953450062501 2.3855007989306096 0 0 0
105 1 1 -1.1214159235636398 -0.935401894810623 2.77437762364422 0 0 0
106 1 1 -0.25126242069217497 -0.7059876663740501 2.9474294387638396 0 0 0
107 1 1 0.455468519693051 -1.35650879281262 2.80592614081755 0 0 0
108 1 1 -0.38907197744573496 -1.71159019570938 2.95877211433481 0 0 0
109 1 1 -0.293608777741104 -2.5168338190592 2.4733838533037997 0 0 0
110 1 1 -0.49453936188822406 -2.12359687041371 1.6127338363238999 0 0 0
111 1 1 -0.968877403293024 -2.7835633678400296 1.04397905429695 0 0 0
112 1 1 -0.465694246174303 -3.32977249104829 0.3251795856725239 0 0 0
113 1 1 -0.589953498346755 -2.89222093573317 -0.5015346857865521 0 0 0
114 1 1 0.014271765468183872 -2.13799103694636 -0.715602999328541 0 0 0
115 1 1 -0.576199033545011 -1.73352104047081 -0.08199668533948146 0 0 0
116 1 1 -1.21725317351668 -1.6661396325929498 0.6275511239691639 0 0 0
117 1 1 -0.8539331937040601 -1.0809295243550099 1.27417653667976 0 0 0
118 1 1 -0.49788047347662107 -0.2778132213624731 1.7152344987234096 0 0 0
119 1 1 -0.8002122630576071 -0.18006405350248608 0.8397467632971017 0 0 0
120 1 1 -1.16587446352069 -0.6140060528484301 0.050472046830568607 0 0 0
121 1 1 3.13769571432069 4.93856495872967 6.39135937948369 0 0 0
122 1 1 3.30525169615439 4.16697320544183 6.99969890419158 0 0 0
123 1 1 3.26574497683803 3.2104606201982997 7.22317430848698 0 0 0
124 1 1 3.05211658959113 3.2625498737320204 6.28241383550283 0 0 0
125 1 1 2.1372444820476297 3.1083762342152403 6.043612195669559 0 0 0
126 1 1 2.50552624897758 2.5215474697870697 5.3931797090588 0 0 0
127 1 1 1.5402497930206698 2.4867442780183 5.14042061977445 0 0 0
128 1 1 1.14511261938707 3.3296191477201598 5.5189706570386505 0 0 0
129 1 1 1.1153006507993701 2.71673786089876 6.29536367954247 0 0 0
130 1 1 0.23496778134420104 2.65318398028937 6.6089815052207195 0 0 0
131 1 1 0.360237797009638 2.52536347844262 5.61963460773637 0 0 0
132 1 1 -0.4200066674165619 1.93985812251612 5.803252331201941 0 0 0
133 1 1 -0.45623525652960195 1.1597076155745802 6.3131185555113305 0 0 0
134 1 1 0.4530205899016251 0.9580614461276551 6.574894505600599 0 0 0
135 1 1 0.4842301612112421 0.10330750906753194 6.177135175766161 0 0 0
136 1 1 0.1675217542991821 -0.5810910709524101 5.58282907682818 0 0 0
137 1 1 -0.19221689660218594 -0.477422825082729 4.6643810915781705 0 0 0
138 1 1 0.008076323608046165 -0.9785591908636491 3.8584782409767504 0 0 0
139 1 1 0.9303087271658741 -1.00870206735517 3.66327413949418 0 0 0
140 1 1 1.8097142623199498 -1.00814932334119 3.7478052474404704 0 0 0
141 1 1 2.53640103095238 -0.845549996309201 3.1174255102995097 0 0 0
142 1 1 3.36010974402333 -1.3558319064627902 3.2597580260614003 0 0 0
143 1 1 3.8975188317259706 -0.614174246313943 2.99026465418537 0 0 0
144 1 1 4.66585470428416 -0.389801339427267 3.51644436869362 0 0 0
145 1 1 4.85851717651659 -0.7158067172993021 4.420138123332491 0 0 0
146 1 1 5.4347958847437 -1.3733653455339798 4.76803821078571 0 0 0
147 1 1 6.250802511861349 -1.8268220598193798 4.5020424187338 0 0 0
148 1 1 5.67126845017408 -2.5346479437594 4.77751052692902 0 0 0
149 1 1 4.9252834573699005 -2.3233525228406404 4.16988586318684 0 0 0
150 1 1 4.303496626086759 -1.78794435716966 4.63751005156816 0 0 0
151 1 1 4.34293261004327 -1.49037082913075 3.7144403116286004 0 0 0
152 1 1 5.255169659393731 -1.2503422152638999 3.5397888654473997 0 0 0
153 1 1 5.053715719336161 -2.13223846453408 3.18511774152062 0 0 0
154 1 1 5.87534972150845 -2.23487649488558 3.5980734150749902 0 0 0
155 1 1 6.182717584178951 -1.42715712640654 3.14311797535699 0 0 0
156 1 1 6.56294231560405 -0.9801752238070459 3.91280352709309 0 0 0
157 1 1 6.302219243483781 -0.725461370036665 4.829911055419401 0 0 0
158 1 1 7.04794450435403 -0.19128814256065496 4.8898874552639295 0 0 0
159 1 1 6.67263759661443 0.3593417376934289 4.22824223055208 0 0 0
160 1 1 7.31254037516235 0.12009199344535698 3.51434938296463 0 0 0
161 1 1 4.2603883395820805 -6.226602323931051 -6.772378681668661 0 0 0
162 1 1 4.77311741082208 -5.40671160682217 -6.617011448513969 0 0 0
163 1 1 5.1192918334641995 -4.60938789439767 -6.6858122862489004 0 0 0
164 1 1 6.00546948993179 -4.91073945354417 -6.53198971634406 0 0 0
165 1 1 6.0149617355451 -4.91653011145024 -5.531218459369461 0 0 0
166 1 1 6.52294027121629 -4.25743885580414 -5.13963321358953 0 0 0
167 1 1 6.743864444831241 -3.8494157358225602 -4.31012219372153 0 0 0
168 1 1 6.43955934422054 -3.47024931504724 -3.50977035685928 0 0 0
169 1 1 6.546614797281831 -3.3060867025099503 -2.54385569837725 0 0 0
170 1 1 7.39556029590356 -3.09831023932682 -2.17618140147775 0 0 0
171 1 1 8.053622900268849 -2.51047048681427 -1.75934013283566 0 0 0
172 1 1 8.595252992154869 -3.2498211682328497 -1.4729197565057701 0 0 0
173 1 1 9.45857322770065 -3.0037256757332003 -1.1798144720553798 0 0 0
174 1 1 10.14020684951846 -2.7127397435705 -1.78046036513888 0 0 0
175 1 1 9.642584526524981 -3.3308411548516696 -2.28011681623884 0 0 0
176 1 1 8.926473902999732 -2.74210373907412 -2.42696438401824 0 0 0
177 1 1 8.423618160393552 -2.13487916776606 -2.9760981696203195 0 0 0
178 1 1 9.344533007037391 -1.7601624251657098 -2.96775299017877 0 0 0
179 1 1 9.560575802719782 -0.8976293400454229 -3.21192380872054 0 0 0
180 1 1 9.718776210732333 -0.11375128520828104 -2.49857116849529 0 0 0
181 1 1 10.507924695403522 0.3477463312686699 -2.2154250826385398 0 0 0
182 1 1 10.519882938541844 0.11011312251479694 -3.1572188519181696 0 0 0
183 1 1 11.187612640999614 -0.612503271825561 -2.97373948837247 0 0 0
184 1 1 10.543415106701513 -0.904153345789372 -3.62276655829472 0 0 0
185 1 1 10.523900683394903 -1.4569045994818 -2.8400825272708703 0 0 0
186 1 1 11.089745464449042 -1.92900856769394 -3.38103377240781 0 0 0
187 1 1 10.837011047849732 -2.5301630010646496 -2.7381444392683703 0 0 0
188 1 1 11.129686851647392 -3.36901030155873 -2.40792289959374 0 0 0
189 1 1 11.845432657505501 -3.09804109670624 -1.92008881466672 0 0 0
190 1 1 12.774529200660261 -3.06775381334335 -2.1496482687282197 0 0 0
191 1 1 12.992001248086092 -3.34686194431773 -1.27659662351388 0 0 0
192 1 1 13.385118435442882 -2.53359659818308 -1.44465707718924 0 0 0
193 1 1 13.288529389859482 -1.74531909294924 -0.9524345234157909 0 0 0
194 1 1 12.77553170251431 -1.5329500219511003 -0.18648479213082303 0 0 0
195 1 1 13.196448454150541 -0.7437744105410041 0.3259186146972899 0 0 0
196 1 1 13.86829832819042 -0.18575692998427396 0.6350139252512328 0 0 0
197 1 1 13.95606941221561 -0.024633699250042412 1.5936844151656202 0 0 0
198 1 1 14.59618242438558 0.670322603275842 1.76602020046229 0 0 0
199 1 1 14.649269786036388 1.6089728471796498 1.71430411863024 0 0 0
200 1 1 13.920825243272848 1.3099656149578 2.2325634764065896 0 0 0
201 1 1 5.400436601404 4.43996545941796 6.95980340428441 0 0 0
202 1 1 5.39935087688372 3.49361195402626 6.64126996075374 0 0 0
203 1 1 4.91214589184584 4.11862734766832 6.009169892073669 0 0 0
204 1 1 5.48325114779937 4.1668342146516295 5.305330645770759 0 0 0
205 1 1 6.4307034702004895 4.17192046363878 5.276440458961339 0 0 0
206 1 1 6.967974588590129 3.85513688160824 4.5090225355467695 0 0 0
207 1 1 7.4157567563047895 3.8020911812326097 5.34441663879217 0 0 0
208 1 1 8.02064583682423 4.11670700882509 4.602247071464269 0 0 0
209 1 1 8.72745294187849 4.1504669811083295 5.25398673982778 0 0 0
210 1 1 7.969861175059361 4.77899814288176 5.403663760105919 0 0 0
211 1 1 8.77315367731767 5.06193552239411 5.916816460644539 0 0 0
212 1 1 8.25104354198643 5.721907698160679 5.48894415231904 0 0 0
213 1 1 7.7882627024679 5.50674272931717 6.2572445341019 0 0 0
214 1 1 7.70330278967567 4.5194174370496905 6.395931604276369 0 0 0
215 1 1 7.17184586404824 3.7919854727614997 6.507178373778241 0 0 0
216 1 1 6.41606014592792 3.3315927701054595 6.261136137763 0 0 0
217 1 1 5.94307731703753 2.67577077804035 5.774657342641129 0 0 0
218 1 1 4.9825358359913 2.64450338898271 5.979186746147981 0 0 0
219 1 1 4.98898498601015 3.28100542050132 5.21784735300833 0 0 0
220 1 1 5.02111774106998 2.42597353211527 4.93176927404267 0 0 0
221 1 1 4.693467621056071 2.9823903378625696 4.20700443861676 0 0 0
222 1 1 5.37378497904464 3.3420804609905397 3.61871726441471 0 0 0
223 1 1 6.117379225312459 3.9541288504546404 3.6562656246377903 0 0 0
224 1 1 6.50134917563247 3.27187081854268 3.11930514121068 0 0 0
225 1 1 7.38623071102872 3.6200902187017703 3.31595891060502 0 0 0
226 1 1 7.222347087701991 3.61485982026231 2.3437727617159902 0 0 0
227 1 1 7.416293398852611 4.35121778354463 1.7573816397321698 0 0 0
228 1 1 6.80751625069672 4.9257346453008 1.37079626583824 0 0 0
229 1 1 7.156726469177671 5.73417628173555 1.0622042087083101 0 0 0
230 1 1 8.051911577672401 5.347516990036009 1.23623357071534 0 0 0
231 1 1 8.27219336818373 6.27335136270458 1.31598007395925 0 0 0
232 1 1 7.64940429273239 6.485776260938111 0.614241763659619 0 0 0
233 1 1 7.84404782523484 5.63048025457125 0.22937526577397804 0 0 0
234 1 1 8.643268600390849 6.03569561775664 0.03580426817156204 0 0 0
235 1 1 8.69400349853366 6.902080364596371 0.31307159518000405 0 0 0
236 1 1 8.451596524780909 7.088274465163059 -0.608066783941208 0 0 0
237 1 1 9.40252108040315 6.98505626862929 -0.425562098811989 0 0 0
238 1 1 10.34398176769995 6.91039378886027 -0.4913476320557821 0 0 0
239 1 1 9.95034183552804 6.66389840686574 -1.32793438579955 0 0 0
240 1 1 9.29844046639029 7.32382943805145 -1.3019988105833997 0 0 0
241 1 1 -0.119125721174173 -7.5019412603142905 -7.74513298812706 0 0 0
242 1 1 -0.246191044559437 -7.744440947080481 -8.655610730720749 0 0 0
243 1 1 0.27998106318929805 -8.449745924375968 -9.037924115774679 0 0 0
244 1 1 1.0833842697998 -8.020216400006088 -8.85027652752839 0 0 0
245 1 1 1.90067287389566 -7.996355090139988 -9.31535740066165 0 0 0
246 1 1 2.24571729158877 -8.626480215969309 -8.669588665320399 0 0 0
247 1 1 1.7580142111507402 -9.456637199118429 -8.50860069431224 0 0 0
248 1 1 2.5624394564919504 -9.943769129096129 -8.50378209188816 0 0 0
249 1 1 3.47753324633084 -9.93500930026898 -8.343680642463932 0 0 0
250 1 1 3.32427629944695 -10.633417599284911 -7.678233505572582 0 0 0
251 1 1 3.06449037919618 -11.52959416189889 -7.849285307626071 0 0 0
252 1 1 2.2498984781853597 -11.872126414474472 -8.207316266300682 0 0 0
253 1 1 1.8320900520368302 -12.071957949526732 -9.027955415963769 0 0 0
254 1 1 1.17113841197091 -12.758046322146452 -9.01939048033828 0 0 0
255 1 1 0.545359504450369 -12.786939405671092 -9.76167471361348 0 0 0
256 1 1 0.0037068124071275577 -12.028325263506112 -9.69966859682436 0 0 0
257 1 1 -0.115318301389317 -12.355400272613743 -10.580819013148309 0 0 0
258 1 1 -0.07790091241999875 -13.253578321110032 -10.987131408766029 0 0 0
259 1 1 -0.33384547947823995 -13.346768581830842 -10.032313966617128 0 0 0
260 1 1 -0.8807895015677479 -13.987364656487202 -10.430666308122408 0 0 0
261 1 1 -1.8372262160305903 -14.005068993696932 -10.349415172425457 0 0 0
262 1 1 -2.39123765925531 -14.211088556258192 -11.097264037079707 0 0 0
263 1 1 -1.8949682406902901 -14.071668821503922 -11.964468932816857 0 0 0
264 1 1 -1.30267259370415 -13.779739629253562 -12.614698142173927 0 0 0
265 1 1 -1.01947211583879 -14.716102714884343 -12.546349068011565 0 0 0
266 1 1 -1.5456783337341202 -15.374228467934312 -12.160591090137505 0 0 0
267 1 1 -1.57605282173697 -15.861627649118804 -12.998217039500995 0 0 0
268 1 1 -1.67830953122425 -16.621764197458702 -12.388711334724185 0 0 0
269 1 1 -1.10891855961938 -16.852323979058838 -11.730814493253115 0 0 0
270 1 1 -1.62479199239045 -16.977199081757817 -10.980189885134344 0 0 0
271 1 1 -0.8481162848929771 -16.64164996942296 -10.633385556394284 0 0 0
272 1 1 -1.37029078650396 -15.95886149169822 -11.076284100859075 0 0 0
273 1 1 -0.632610471212654 -15.92375565899836 -11.641454967747265 0 0 0
274 1 1 -0.14189060285563704 -15.141727616463223 -12.002564453712266 0 0 0
275 1 1 0.587535181027672 -14.692705986276513 -12.345749710370775 0 0 0
276 1 1 0.01721190194239597 -13.907200969344684 -12.158201550727114 0 0 0
277 1 1 -0.317889414070772 -13.434239029795974 -12.970090189263624 0 0 0
278 1 1 0.5273523168750229 -12.996146681488012 -13.216002621228835 0 0 0
279 1 1 0.9066345131162881 -13.840761512632273 -12.969000439204574 0 0 0
280 1 1 1.76194629094758 -14.217548360826603 -13.189655584708134 0 0 0
281 1 1 -7.880461623182629 2.2402886437906404 3.87107913762325 0 0 0
282 1 1 -8.35030500317456 2.214232184042 3.02748282751091 0 0 0
283 1 1 -8.530718021909431 2.33838075421442 2.0654682705113 0 0 0
284 1 1 -9.321292131616941 2.63317561808245 1.5688565112350201 0 0 0
285 1 1 -9.938928709297931 2.74128327760397 0.872614294708823 0 0 0
286 1 1 -9.763723504020291 3.1834209322745903 -0.0063490232536498326 0 0 0
287 1 1 -10.282035331894152 3.72056651243948 -0.645538144830539 0 0 0
288 1 1 -9.92708730052856 3.9908004405902004 -1.48507168435882 0 0 0
289 1 1 -9.21946806403244 3.37896376980928 -1.68156589234054 0 0 0
290 1 1 -8.269910879690082 3.1243043607751 -1.8077621981168202 0 0 0
291 1 1 -7.663052739812792 2.9833110290578597 -2.5212322578446402 0 0 0
292 1 1 -7.499623873012012 3.91838782557088 -2.41975929123748 0 0 0
293 1 1 -7.286720337695551 4.84535103850563 -2.5958376583552 0 0 0
294 1 1 -6.878674754956972 4.28405118658313 -3.2900606975232702 0 0 0
295 1 1 -7.326898710174431 3.99722861753523 -4.10275651649585 0 0 0
296 1 1 -8.096431557519193 3.76705705954725 -3.5813160071305603 0 0 0
297 1 1 -8.238871202528092 2.81761469457101 -3.47246787954734 0 0 0
298 1 1 -7.765931664851612 2.30706491790584 -4.1599507510990295 0 0 0
299 1 1 -7.175344411760761 2.2244405911419602 -4.90611913233798 0 0 0
300 1 1 -7.1727775441852515 1.5897988086555201 -5.63003560593235 0 0 0
301 1 1 -6.752422717971122 2.1346032162408797 -6.271272571406421 0 0 0
302 1 1 -7.392030893464662 2.7839335527126003 -5.9582161951108805 0 0 0
303 1 1 -7.369336713494072 2.72181178126068 -6.899333398273719 0 0 0
304 1 1 -7.9719926649800525 2.7618023856619196 -7.69130159750916 0 0 0
305 1 1 -7.405114789126492 3.5196559943558903 -7.68941777279921 0 0 0
306 1 1 -8.150109743266443 3.798958114564 -8.18239498923131 0 0 0
307 1 1 -8.716980750005051 4.02370804765993 -7.46723911344632 0 0 0
308 1 1 -9.62108227195893 3.85560259253442 -7.268818458868611 0 0 0
309 1 1 -9.92857012110253 3.0207160190335696 -7.67468455570838 0 0 0
310 1 1 -9.666488449336981 2.05222240315491 -7.62897525398656 0 0 0
311 1 1 -8.81594379666806 2.02968378915002 -7.14113770852905 0 0 0
312 1 1 -8.14616211358639 1.3212642476788201 -7.10681994204018 0 0 0
313 1 1 -7.26272780848799 1.7259581641263202 -7.15537397146389 0 0 0
314 1 1 -7.04641890145913 2.06614645432089 -8.0544697644937 0 0 0
315 1 1 -6.31194115162939 1.73580754997442 -7.64286115563271 0 0 0
316 1 1 -6.448238646910171 2.58374178613766 -7.24784761311968 0 0 0
317 1 1 -6.27369473476485 3.37771236723662 -7.69953292811476 0 0 0
318 1 1 -5.32041242045022 3.58628752897864 -7.89469303018168 0 0 0
319 1 1 -5.67833567926146 2.91349644721588 -8.438120238571932 0 0 0
320 1 1 -5.38102051413777 2.46031282579447 -7.675142000654871 0 0 0
321 1 1 2.73355892779638 1.77617543277997 -1.13877745100718 0 0 0
322 1 1 2.8302751545507903 0.8258298564438841 -1.3426558747756099 0 0 0
323 1 1 3.35267182560803 0.20479581864990404 -0.7962645795622191 0 0 0
324 1 1 4.2251679313468 0.0015089934181773956 -0.6506409719487171 0 0 0
325 1 1 4.41523612887222 0.9067134653816 -0.6302612261156999 0 0 0
326 1 1 4.08778052055229 0.6259075904854401 -1.4766314966533203 0 0 0
327 1 1 5.08867159794485 0.659596234908983 -1.52110383839059 0 0 0
328 1 1 4.8008896538663395 1.5652685844118301 -1.66403120062455 0 0 0
329 1 1 3.9867450111872405 1.51667072290964 -2.1411687432504602 0 0 0
330 1 1 3.75927709880782 1.8069954829479702 -1.2530441603943 0 0 0
331 1 1 3.47959878192719 2.4600454869345 -1.9108843775405902 0 0 0
332 1 1 3.02900730780879 1.8596844267164698 -2.51708758094848 0 0 0
333 1 1 3.0855414291566605 0.872544661652999 -2.57417161152483 0 0 0
334 1 1 3.66977347555116 0.641950529073821 -3.33088062821352 0 0 0
335 1 1 3.3853306971168102 -0.27829737276809396 -3.4429163065438098 0 0 0
336 1 1 3.47838319477376 -0.17050670247591 -2.5088178273217796 0 0 0
337 1 1 3.16685091228923 -1.03458769503611 -2.5888555417780696 0 0 0
338 1 1 3.48170958532302 -1.98334241540271 -2.66121517838864 0 0 0
339 1 1 3.8018215721429502 -1.60752526456826 -1.8488974152723203 0 0 0
340 1 1 2.95024489785554 -2.08424050840691 -1.5417606859555602 0 0 0
341 1 1 2.24922368074431 -1.84196554853142 -2.09543552474222 0 0 0
342 1 1 1.4027441499375901 -1.8456497914716297 -2.49854536178668 0 0 0
343 1 1 1.91397523066458 -2.10327240580867 -3.30093856429499 0 0 0
344 1 1 0.9457591890003559 -2.18020122671058 -3.4546186078079395 0 0 0
345 1 1 1.29545221850405 -1.23197859887767 -3.51558965162216 0 0 0
346 1 1 0.618867154184105 -1.36460412189872 -4.21475743169287 0 0 0
347 1 1 -0.008487552740795934 -2.0545322204496004 -4.06039039671684 0 0 0
348 1 1 -0.210517720742526 -2.3287723085761898 -4.9358709064464 0 0 0
349 1 1 0.711354308919427 -2.59675027751636 -4.80045197182541 0 0 0
350 1 1 0.69754789626211 -2.87026404759019 -5.75333171129308 0 0 0
351 1 1 0.373325719484072 -3.56588592705299 -6.27680204560297 0 0 0
352 1 1 0.831070900342523 -2.87573715901345 -6.802584387577469 0 0 0
353 1 1 1.75777529737063 -2.8914929379474597 -7.06679077134928 0 0 0
354 1 1 2.10917364858851 -3.42156991531467 -6.39560439182629 0 0 0
355 1 1 1.5455707771702099 -4.15550018259979 -6.66939761355384 0 0 0
356 1 1 1.3698191248926899 -3.9755629590951096 -5.75062895152066 0 0 0
357 1 1 0.9871842419584329 -4.26315913182858 -4.9427813176168005 0 0 0
358 1 1 0.23857090194824004 -3.7351819471306 -5.18277574954095 0 0 0
359 1 1 -0.380306894411948 -3.1301941215170004 -5.58946064216718 0 0 0
360 1 1 -1.2588075333425 -3.0686566245313003 -5.26633391299547 0 0 0
361 1 1 -7.121764702871691 -2.4331768906991003 -3.6647361934978098 0 0 0
362 1 1 -6.529573653043821 -3.1132635465318 -3.4108349869264702 0 0 0
363 1 1 -7.01563856146808 -3.9270971354412003 -3.42781343978821 0 0 0
364 1 1 -6.23945000210429 -4.37482033382554 -2.95347425490775 0 0 0
365 1 1 -5.3451767962640195 -4.33999627474888 -2.55881946727281 0 0 0
366 1 1 -4.55310464473922 -3.87267623024036 -2.79405204531337 0 0 0
367 1 1 -5.06642647701902 -3.29287302156596 -3.3470061233521498 0 0 0
368 1 1 -5.6309386734663 -2.8078473608356203 -4.01753764550415 0 0 0
369 1 1 -5.285874673079809 -3.57298130461351 -4.50947567888477 0 0 0
370 1 1 -4.37805013264406 -3.64905128885454 -4.230723776473741 0 0 0
371 1 1 -4.5617939670085095 -4.585758171239849 -4.39001045987642 0 0 0
372 1 1 -5.42174739570277 -4.79508480608589 -3.85427400888539 0 0 0
373 1 1 -6.27890356074426 -4.80433623805069 -4.21096905489039 0 0 0
374 1 1 -6.622823509928759 -5.779828849733269 -4.243695752800299 0 0 0
375 1 1 -6.679089083288161 -5.5619355969458795 -5.18117226763862 0 0 0
376 1 1 -6.43361421023577 -6.07564114408322 -5.882327255919741 0 0 0
377 1 1 -6.73261735063357 -6.69811883498213 -6.5452866239490595 0 0 0
378 1 1 -7.629601249036161 -6.85021794407627 -6.19918301136847 0 0 0
379 1 1 -6.9697002633523795 -7.16873608888376 -5.662701998159009 0 0 0
380 1 1 -7.087946772940629 -8.05895898631953 -5.356576358247099 0 0 0
381 1 1 -6.69847998885538 -7.7339920595725 -4.50286014625987 0 0 0
382 1 1 -6.7998735828745 -8.28705357430094 -3.7298213404630602 0 0 0
383 1 1 -6.622915618260009 -7.3675512787736706 -3.42752154445154 0 0 0
384 1 1 -7.553375819314129 -7.31917572933866 -3.15149724758856 0 0 0
385 1 1 -7.91165885270337 -7.69057461084746 -3.9386840451459197 0 0 0
386 1 1 -8.692106513449607 -7.110157892622 -3.7663156056086997 0 0 0
387 1 1 -8.784521296771967 -8.099669383808349 -3.9324952218552705 0 0 0
388 1 1 -8.32995237211209 -8.12589768505212 -4.79807671068731 0 0 0
389 1 1 -7.47730862434927 -8.417453867963097 -4.5277200830679805 0 0 0
390 1 1 -7.038005526079281 -9.289742484779467 -4.61978916076304 0 0 0
391 1 1 -6.204383995317629 -9.187024112717157 -4.23158542184468 0 0 0
392 1 1 -6.28816336019924 -9.075528652630659 -5.192788451441981 0 0 0
393 1 1 -6.913763844296151 -9.303122961172768 -5.845852055905841 0 0 0
394 1 1 -6.13093411384602 -9.702081704670029 -6.29290220553099 0 0 0
395 1 1 -5.8914366251743 -8.730181796072218 -6.39297962429505 0 0 0
396 1 1 -5.147502310088099 -9.29761878589088 -6.20155131473185 0 0 0
397 1 1 -5.025167360577111 -9.163383584453719 -5.2867201811447 0 0 0
398 1 1 -5.371992721232999 -8.56920949209704 -4.6355602746290305 0 0 0
399 1 1 -5.75117076622605 -8.246381736299318 -5.4488139880633 0 0 0
400 1 1 -4.9695270143439405 -7.703730473018179 -5.5281991240493795 0 0 0
401 1 1 4.780833353058901 -4.39847848569896 4.32661510152394 0 0 0
402 1 1 4.32871662359987 -5.06787614068226 4.807608581330309 0 0 0
403 1 1 3.85261279092628 -5.62149358971406 5.428850161135 0 0 0
404 1 1 3.1554937828411003 -5.44082718617473 6.07187592608242 0 0 0
405 1 1 3.20820801574287 -4.751941701764331 6.665550633908019 0 0 0
406 1 1 3.94397601973759 -4.2215094442604 6.392985629552371 0 0 0
407 1 1 4.45225816216369 -4.10601349967444 5.55802543945289 0 0 0
408 1 1 4.9698379605856795 -3.2507136670649 5.394568086763329 0 0 0
409 1 1 4.60566361068663 -2.41197953726784 5.62173965854378 0 0 0
410 1 1 4.04800296700705 -1.65065145575441 5.684971876639921 0 0 0
411 1 1 4.59688809769993 -1.57664796568153 6.491306511157299 0 0 0
412 1 1 5.50683343501582 -1.35775844715088 6.81464111294806 0 0 0
413 1 1 5.06331589223286 -0.5601143179979721 7.15770942036878 0 0 0
414 1 1 4.5139627588471605 -1.0606277494513598 7.75645121592262 0 0 0
415 1 1 4.70450215995978 -0.18919595022918 8.1363093483242 0 0 0
416 1 1 5.599285450991269 -0.196395335974975 8.519061162359456 0 0 0
417 1 1 5.884101094789011 0.588828302050771 8.997379467194978 0 0 0
418 1 1 5.185365547482331 0.773602478934585 8.28674283376904 0 0 0
419 1 1 4.818413823740889 1.60527891460159 8.07966901805227 0 0 0
420 1 1 5.21312344440339 2.42750557209866 7.97603626598646 0 0 0
421 1 1 5.73911744982214 3.2256528296388 7.64692526522149 0 0 0
422 1 1 6.11347467119426 2.8110536365063705 8.44875040951943 0 0 0
423 1 1 5.39770908509629 2.94141965509687 9.094290288075712 0 0 0
424 1 1 4.66068066939139 3.1063339467290003 9.730569791001042 0 0 0
425 1 1 4.92567520372359 3.9518661745985098 9.413857715853371 0 0 0
426 1 1 3.97191185082457 4.08147066970519 9.20198139770242 0 0 0
427 1 1 3.99391581022303 5.03752074608709 9.31798089811716 0 0 0
428 1 1 4.07406536099837 5.74472627506881 9.89290073773153 0 0 0
429 1 1 4.87816803847734 5.04746390078925 9.76727560094028 0 0 0
430 1 1 5.68971177017619 5.37676712832986 10.165237821253509 0 0 0
431 1 1 6.1793229153605305 5.812872732102151 9.46476107187886 0 0 0
432 1 1 6.8483168492967 5.88755659399916 8.65317032851416 0 0 0