Read Attempt, after unfolding 
5000 atoms
4900 bonds
0 dihedrals
0 impropers
1 atom types
1 bond types
-9.061505 9.061505 xlo xhi
-9.061505 9.061505 ylo yhi
-9.061505 9.061505 zlo zhi
0 0 0 xy xz yz

Atoms

1 1 1 1.71389398918444 -6.36656469027949 1.5305131461686199 0 0 0
2 1 1 1.6599288287063998 -5.564563014314361 1.1221167698940302 0 0 0
3 1 1 1.06067728595333 -5.101083941161071 0.5062265278131529 0 0 0
4 1 1 0.6527642438239879 -4.89351202481255 -0.31647519921043 0 0 0
5 1 1 1.40896826761637 -5.47137833030558 -0.591395261198679 0 0 0
6 1 1 1.59491526530512 -6.32463134641225 -0.21333295213997894 0 0 0
7 1 1 2.15558963723132 -6.42849556054605 -1.0182458845945002 0 0 0
8 1 1 1.78398817487945 -7.376370835988049 -1.10594488430291 0 0 0
9 1 1 2.04159414658935 -7.6189357246561205 -0.18299323429845105 0 0 0
10 1 1 2.29150764629823 -8.55195882400661 -0.25776871161512505 0 0 0
11 1 1 2.6062928204533704 -8.13875641552396 0.601747282833365 0 0 0
12 1 1 3.4906214980473798 -8.603849579576451 0.83603993283509 0 0 0
13 1 1 4.27779151235816 -8.845505018292311 0.48704963705163 0 0 0
14 1 1 4.58412667657909 -9.71290969759994 0.874931333204723 0 0 0
15 1 1 4.7423350603995 -10.65187042501914 0.7009021472594841 0 0 0
16 1 1 4.90132463455545 -11.5919267113857 0.626200349646306 0 0 0
17 1 1 5.78266381571067 -11.952436596137868 0.802258547094004 0 0 0
18 1 1 6.681936364943559 -11.685689313080676 0.7288458210688199 0 0 0
19 1 1 7.4414646324882305 -11.793986933526796 1.2363892930146498 0 0 0
20 1 1 8.075135692569441 -12.424393008769815 0.8646583734538579 0 0 0
21 1 1 8.35453854604792 -11.576303269257075 0.571843532417175 0 0 0
22 1 1 8.2382620824344 -10.648119174159264 0.5080466334823069 0 0 0
23 1 1 8.75488185875286 -10.978857292010403 -0.261318877163475 0 0 0
24 1 1 9.42412325684992 -10.296020039595273 -0.147755826382246 0 0 0
25 1 1 9.31275901067433 -10.593504487659494 -1.07669826676918 0 0 0
26 1 1 9.157844501816141 -9.656429968054184 -1.0804819024405201 0 0 0
27 1 1 10.100030556396861 -9.766966996547154 -0.8645412360602192 0 0 0
28 1 1 10.888110128619902 -9.260206375398004 -0.592117335347156 0 0 0
29 1 1 10.54919594518882 -8.554779622253603 -1.15933668152217 0 0 0
30 1 1 10.36237765151387 -7.760647875141052 -0.720929527522642 0 0 0
31 1 1 11.22450827991584 -7.5521617885016035 -0.42276585111637605 0 0 0
32 1 1 11.02672277464096 -6.886853065126172 -1.03975370920801 0 0 0
33 1 1 10.12381502376822 -7.017046293736232 -1.29420834816099 0 0 0
34 1 1 10.14646024454954 -7.300299003753484 -2.25381239391888 0 0 0
35 1 1 9.480422327478541 -7.965861521779144 -2.08104684267568 0 0 0
36 1 1 9.110237283326931 -8.707938117743314 -1.5985852108627001 0 0 0
37 1 1 8.621848066228011 -8.791548188255502 -0.723603984817327 0 0 0
38 1 1 8.96646596952028 -8.447318178627672 0.07235595636344172 0 0 0
39 1 1 8.746005415844051 -8.535025399936092 1.04111620000613 0 0 0
40 1 1 9.402384497054213 -7.772782259158532 0.8397816515040949 0 0 0
41 1 1 9.780602094828362 -8.499816800083632 1.3700775596373898 0 0 0
42 1 1 10.540084971721424 -7.936466178616213 1.1988137569003001 0 0 0
43 1 1 11.337457247731194 -7.957499677897543 0.6437346802181589 0 0 0
44 1 1 11.502131790848843 -8.701591857881972 1.2557113365461399 0 0 0
45 1 1 11.200213466759603 -9.085730558856465 0.357904202324431 0 0 0
46 1 1 10.621960508474062 -9.346206795004763 1.12072079081706 0 0 0
47 1 1 10.831541079621983 -10.303353566755463 1.25692569283225 0 0 0
48 1 1 11.511359342561814 -9.808403954580314 1.7088655994949902 0 0 0
49 1 1 11.112677549851664 -9.319255750131783 2.41176001190427 0 0 0
50 1 1 12.028307285747413 -9.284244512265863 2.67990062241411 0 0 0
51 1 1 -4.5113758902781305 -5.31350614932606 0.217379661706477 0 0 0
52 1 1 -4.740058189285571 -4.5799576641950095 0.7435527087713019 0 0 0
53 1 1 -4.37544693361749 -5.2229853025186 1.45706046768237 0 0 0
54 1 1 -3.47612733464608 -4.887725891481651 1.6571070103672296 0 0 0
55 1 1 -3.7709328503807003 -4.637536916766839 0.7969852401032806 0 0 0
56 1 1 -2.85310280766012 -4.33831134602411 1.0648718777578499 0 0 0
57 1 1 -2.4199837252534397 -3.9178365810506803 1.7678292542978198 0 0 0
58 1 1 -2.67231633702411 -3.41180076330075 2.5060053572599195 0 0 0
59 1 1 -3.14441750131627 -4.26192454453861 2.5509527451655596 0 0 0
60 1 1 -3.52893388172235 -4.708602854521769 3.2802514300815493 0 0 0
61 1 1 -3.26030830768409 -5.4789875519443205 2.7217609570199293 0 0 0
62 1 1 -3.8148983262669303 -5.901729070380321 3.3700779264540195 0 0 0
63 1 1 -4.36620394429328 -5.459680608716639 2.6901902274344596 0 0 0
64 1 1 -4.68319072219945 -4.5014226609106 2.66524951459793 0 0 0
65 1 1 -4.44346417490824 -4.23079572933963 3.5367277220005997 0 0 0
66 1 1 -5.23291447615214 -4.36258499115844 4.014593528383449 0 0 0
67 1 1 -6.1401671356564105 -3.84143203054519 3.976227003882129 0 0 0
68 1 1 -5.50309139623711 -3.58423133894081 3.294328847304059 0 0 0
69 1 1 -6.0430298946242 -2.8016419945857995 3.260670640320209 0 0 0
70 1 1 -5.125108754625151 -2.55608649561647 3.225436499554869 0 0 0
71 1 1 -5.10440473661274 -1.9211352850341397 2.5267705988976292 0 0 0
72 1 1 -4.16816299984141 -2.04539174788688 2.8054188899961594 0 0 0
73 1 1 -4.24623764657366 -2.35714484948856 1.9329577596168093 0 0 0
74 1 1 -5.0482660339020295 -2.9131583285088 2.065724245783759 0 0 0
75 1 1 -4.28763939527496 -3.5196079363029598 2.3123944861157395 0 0 0
76 1 1 -3.77906141657961 -3.76923877130122 1.462141988682019 0 0 0
77 1 1 -3.4235785962399 -3.01241909402408 1.9115395614923092 0 0 0
78 1 1 -3.03033834114359 -3.10910373348431 1.055656771434799 0 0 0
79 1 1 -2.45654445754261 -2.66272666602607 0.4651515128388841 0 0 0
80 1 1 -3.35445064169193 -2.62155453339303 0.17868987982519907 0 0 0
81 1 1 -3.6711908592869 -1.7225660217079397 0.29551457496472305 0 0 0
82 1 1 -3.9725431203550396 -1.0718218692941999 0.9852473059898812 0 0 0
83 1 1 -4.7985070130494405 -0.687134084118389 0.5803443679101282 0 0 0
84 1 1 -4.83151232216959 -1.00478100126558 -0.2799975511861499 0 0 0
85 1 1 -5.7419101487652 -1.1986545572442 0.1444654545633131 0 0 0
86 1 1 -6.511836485056531 -0.671906246166563 -0.025488114834998576 0 0 0
87 1 1 -6.71067155197901 -0.7933217841909191 0.8568184231968191 0 0 0
88 1 1 -6.76567301733302 -0.7565893736839481 1.8271022026013692 0 0 0
89 1 1 -7.376383993262991 -1.4395561777361 1.466117683355239 0 0 0
90 1 1 -8.05548608841272 -1.10532176452737 0.893590611261962 0 0 0
91 1 1 -8.37255719358135 -1.15526029410996 -0.03791493086677189 0 0 0
92 1 1 -7.909452396319259 -0.497592839180403 -0.5610271666385658 0 0 0
93 1 1 -7.281084803351541 -0.109680170978876 0.06556756959211452 0 0 0
94 1 1 -7.21047700946069 0.60752093795433 -0.558425939024953 0 0 0
95 1 1 -7.26249039379369 0.9095399793555041 -1.4052308318410909 0 0 0
96 1 1 -7.1246144537480305 1.3355904615014098 -2.2098055388729914 0 0 0
97 1 1 -6.79437102395319 0.40749748827614796 -2.1745317490303107 0 0 0
98 1 1 -6.089116783953429 -0.19766517501328595 -1.933824952886841 0 0 0
99 1 1 -6.48443167746521 0.0287101816326861 -1.014050946426161 0 0 0
100 1 1 -5.6504116386296905 0.4544665437302591 -1.198946728227751 0 0 0
101 1 1 -8.81955949398616 5.489765823603981 -5.86724823324371 0 0 0
102 1 1 -8.74069591759616 6.363189127727099 -6.22691181802186 0 0 0
103 1 1 -8.02418690287489 6.68873560345707 -5.774919156731911 0 0 0
104 1 1 -8.5322892986613 7.34001539586905 -5.19055075434028 0 0 0
105 1 1 -8.255497976073741 6.6234224355645095 -4.5981908238636695 0 0 0
106 1 1 -8.92296841176508 6.42432206562223 -5.23180235874703 0 0 0
107 1 1 -9.533386499482628 7.19679032269178 -5.024140492244469 0 0 0
108 1 1 -9.381186432954138 7.23363491500733 -5.971333495294339 0 0 0
109 1 1 -9.46315400200708 6.9096086229121605 -6.8576324233691 0 0 0
110 1 1 -9.483695560956049 7.84211893016402 -6.9935366650411 0 0 0
111 1 1 -9.207076759358447 8.28124383175872 -6.16821485220902 0 0 0
112 1 1 -8.976145637410507 8.22717555414608 -5.17688175067904 0 0 0
113 1 1 -9.902818000079069 8.31073118826146 -5.19480214420397 0 0 0
114 1 1 -9.48965070051519 9.202075143128102 -5.3249982219307 0 0 0
115 1 1 -9.59275130136642 10.137712946535713 -5.12995828265334 0 0 0
116 1 1 -10.335747538874639 9.709691838161953 -4.769839575151701 0 0 0
117 1 1 -11.10340837924555 9.355297209486801 -4.247899551271121 0 0 0
118 1 1 -10.51267350314815 9.075139257208862 -3.6431112420790694 0 0 0
119 1 1 -10.92173704703012 9.826575323853163 -3.20784134935426 0 0 0
120 1 1 -11.58007106945556 9.151973357038564 -3.14798991471401 0 0 0
121 1 1 -12.396441353908251 8.886520826610482 -3.59275813707042 0 0 0
122 1 1 -12.239382573059531 8.039031182750783 -3.98226421937833 0 0 0
123 1 1 -11.25792326377646 8.149621416447623 -3.89528818301887 0 0 0
124 1 1 -10.67214617569652 7.357935870135122 -3.76531493702057 0 0 0
125 1 1 -10.112003529533482 6.830521717492811 -3.1543970690672203 0 0 0
126 1 1 -9.628296414787082 6.919738196131452 -3.97978884319034 0 0 0
127 1 1 -9.75654731751176 6.037364904003412 -4.24806652787647 0 0 0
128 1 1 -8.819839712909442 5.862193812874662 -4.24349645465671 0 0 0
129 1 1 -9.331148773251854 5.103228523752342 -3.91589653662297 0 0 0
130 1 1 -8.675233778324753 5.185191065560292 -3.25188457549209 0 0 0
131 1 1 -9.211777253006638 6.0053417667559215 -3.1976060183094 0 0 0
132 1 1 -9.119856032373407 6.023978667832381 -2.24553835409355 0 0 0
133 1 1 -8.514768075596736 5.308909900967051 -1.87123397797434 0 0 0
134 1 1 -9.202478760624745 5.563291123438532 -1.20752174381628 0 0 0
135 1 1 -9.689922785848404 6.392923768002983 -1.36616826893546 0 0 0
136 1 1 -10.399232192745433 6.336962243629561 -1.96414662533665 0 0 0
137 1 1 -10.842297167992934 5.501570360570171 -2.001555660996 0 0 0
138 1 1 -11.710365975042825 5.119317764065872 -2.3737732193769197 0 0 0
139 1 1 -12.542460671759375 5.567758549894733 -2.39702551228792 0 0 0
140 1 1 -11.898044973410325 5.972182342954171 -1.78288735801712 0 0 0
141 1 1 -12.438870595741765 6.055525807191582 -0.981832423917897 0 0 0
142 1 1 -13.331763924306497 6.102702107519792 -1.1784031397293302 0 0 0
143 1 1 -13.470590931802466 6.552538854740193 -0.384803771468871 0 0 0
144 1 1 -13.983428781882687 5.743118569931352 -0.306558632456056 0 0 0
145 1 1 -13.585711284981777 4.947591022518222 -0.65567221269138 0 0 0
146 1 1 -14.503516900955317 4.7022266734497515 -0.441415173942481 0 0 0
147 1 1 -15.103875304475846 4.120497633860632 -0.852369669160211 0 0 0
148 1 1 -15.644317326243206 4.238170191644172 -1.6189217333109098 0 0 0
149 1 1 -16.009419379289547 3.3106249979459816 -1.7016324397224298 0 0 0
150 1 1 -16.569042274111517 2.504447504352402 -1.99459147680334 0 0 0
151 1 1 -3.11860954235915 -8.11625918460472 -5.0242768204414405 0 0 0
152 1 1 -2.9825352021785294 -7.20882667513036 -4.58090459813753 0 0 0
153 1 1 -3.80868627648819 -7.2863838518245005 -5.0286646862374 0 0 0
154 1 1 -3.09568854109631 -6.908308976474331 -5.67038305185758 0 0 0
155 1 1 -2.85081769636138 -7.7464528725313695 -6.052162173507821 0 0 0
156 1 1 -2.0594658575121 -7.90352046623613 -6.680233016010519 0 0 0
157 1 1 -1.8648493495154097 -6.89154234626914 -6.81515644559485 0 0 0
158 1 1 -2.8276198412505402 -6.7772424992566505 -6.75999166247269 0 0 0
159 1 1 -2.80505512934915 -7.35116413562258 -7.53875249712933 0 0 0
160 1 1 -2.44213769427286 -8.09766270365669 -8.09212870710935 0 0 0
161 1 1 -1.9352052448738502 -8.62787393220562 -7.504414918147909 0 0 0
162 1 1 -1.8636736032207302 -9.30592501201702 -8.26823365378737 0 0 0
163 1 1 -1.93756944639101 -10.260993023722062 -8.43073327734488 0 0 0
164 1 1 -2.87790848673014 -10.286898176210052 -8.09245188313418 0 0 0
165 1 1 -3.07305088869049 -10.951472142518522 -8.75079386155068 0 0 0
166 1 1 -3.38486812773453 -11.608792258664185 -9.365485488196743 0 0 0
167 1 1 -3.48457886749015 -12.351614106166934 -8.795236916143011 0 0 0
168 1 1 -2.53080285395339 -12.396643182608635 -8.804395161673922 0 0 0
169 1 1 -2.67198688153769 -13.292844298863166 -9.346292279451431 0 0 0
170 1 1 -2.55903384508664 -12.561484256638504 -10.025593406546522 0 0 0
171 1 1 -3.57028871701913 -12.594158493852895 -9.887316383221151 0 0 0
172 1 1 -3.18655276251375 -11.890051929568845 -10.426291502063702 0 0 0
173 1 1 -3.94490522330553 -12.128361253135225 -11.092738874222562 0 0 0
174 1 1 -4.02003018592624 -11.677612477686695 -11.906481370261321 0 0 0
175 1 1 -3.95563076319415 -10.754522581945405 -11.953146587782062 0 0 0
176 1 1 -3.0028711155427 -10.696079952134355 -12.182632904617993 0 0 0
177 1 1 -2.9704873003654106 -10.505674375997385 -13.149301566539092 0 0 0
178 1 1 -3.3790301644770895 -10.956137264316386 -13.903228765642313 0 0 0
179 1 1 -3.15369290457626 -10.011275345514306 -14.122584873485883 0 0 0
180 1 1 -3.75257966517303 -9.882508219761146 -13.372787180108823 0 0 0
181 1 1 -4.14908034578458 -9.038132667697045 -13.130002945004811 0 0 0
182 1 1 -3.84886697519635 -8.323831226396397 -12.576754416494582 0 0 0
183 1 1 -3.5944755337192595 -7.416225654846758 -12.61748535103533 0 0 0
184 1 1 -4.60038730622538 -7.247289842872708 -12.49057425865965 0 0 0
185 1 1 -4.34430381630012 -6.483667399745817 -13.001843961426381 0 0 0
186 1 1 -4.3623969629711805 -6.282634829020797 -13.948595334293021 0 0 0
187 1 1 -4.826627013477809 -5.443246279737357 -13.63485925028429 0 0 0
188 1 1 -5.02038821983558 -5.552205733907727 -14.56426425480113 0 0 0
189 1 1 -4.66284882837024 -6.416285580297316 -14.92529251675532 0 0 0
190 1 1 -5.009300578513161 -7.263918181001748 -14.54676506287673 0 0 0
191 1 1 -4.35461186016055 -7.314964767177267 -13.86086656908598 0 0 0
192 1 1 -4.37961001951323 -8.239623188546698 -14.072436214436731 0 0 0
193 1 1 -3.66387459044241 -8.646046584062137 -14.54382381163034 0 0 0
194 1 1 -3.48168654972992 -9.511619187083468 -14.93884365895832 0 0 0
195 1 1 -2.63673082351124 -9.909900519599148 -15.213687963932289 0 0 0
196 1 1 -2.82301960374666 -10.765410441972747 -15.541221595902208 0 0 0
197 1 1 -1.8879593603701499 -10.347694534752407 -15.770738799836469 0 0 0
198 1 1 -2.45131032009885 -9.752459640505677 -16.24238774662981 0 0 0
199 1 1 -1.8268501979325 -9.850886913981645 -16.94678365508338 0 0 0
200 1 1 -1.0824084356100698 -10.389398621352026 -16.59135463418269 0 0 0
201 1 1 6.3174054224578295 3.02135324914748 3.16129206179106 0 0 0
202 1 1 6.92267441431656 3.75209086969109 3.21212398928695 0 0 0
203 1 1 7.473599034431701 4.52433624709157 3.43721512795528 0 0 0
204 1 1 7.26018271268813 5.36881635491385 3.14560417836837 0 0 0
205 1 1 7.37197690156516 5.82917077007785 2.29448226299179 0 0 0
206 1 1 7.54582994971293 6.512337740585389 2.95460162855254 0 0 0
207 1 1 6.62524180358728 6.165994107874991 2.96568177403728 0 0 0
208 1 1 6.443309165506751 6.93868759200745 3.5073698786028498 0 0 0
209 1 1 6.2914118769708205 6.731759846720309 4.41131991161561 0 0 0
210 1 1 7.05917192581754 6.4533720958008 4.83887808880275 0 0 0
211 1 1 7.3232827464444 5.9818509284549295 4.036514083436351 0 0 0
212 1 1 7.70689389283104 5.462041364246581 4.80475671905607 0 0 0
213 1 1 7.13806062021878 4.85629143886888 4.404379960088519 0 0 0
214 1 1 6.610451838695759 5.37576204461075 5.09231376921546 0 0 0
215 1 1 6.06420349782719 5.64152019837345 5.797218259255331 0 0 0
216 1 1 5.97099093106421 6.47933667414976 5.2816635468964295 0 0 0
217 1 1 5.816879353537789 6.78887373039438 6.190699996921031 0 0 0
218 1 1 6.45003878588833 7.38541907594434 6.54646218724721 0 0 0
219 1 1 6.16300235586762 6.91055576300045 7.32630168986614 0 0 0
220 1 1 6.21515288875229 6.25990664851524 8.0211906858143 0 0 0
221 1 1 6.22446810802973 5.312916931140741 7.89254316987618 0 0 0
222 1 1 5.857342661459191 4.662923291359849 7.33276448007566 0 0 0
223 1 1 5.023919004887531 5.21180076804108 7.329106206169831 0 0 0
224 1 1 4.13297436523696 5.398000560412981 7.14735208386258 0 0 0
225 1 1 3.18911885199945 5.161911593868861 6.86422090291611 0 0 0
226 1 1 3.1557889390527403 5.2571445355626105 7.81489126439478 0 0 0
227 1 1 2.32484248180156 5.24831756361627 8.34275384521857 0 0 0
228 1 1 1.68252736223514 4.50210686624069 8.3413880917016 0 0 0
229 1 1 1.15176431068782 5.2351549143266505 8.071345605191821 0 0 0
230 1 1 1.5587358411591297 6.0936325111046505 8.088831064597139 0 0 0
231 1 1 0.657645469686576 6.1892293717588 8.3929613872875 0 0 0
232 1 1 0.051598043957355344 5.927020346013331 7.69118478028854 0 0 0
233 1 1 -0.737681447171175 5.52935051534579 8.11495616635031 0 0 0
234 1 1 -1.52448556736706 5.56971132108067 8.75791746814375 0 0 0
235 1 1 -1.6333764099232702 4.82194631411881 8.12976215060772 0 0 0
236 1 1 -0.924648066163501 4.7377712469377595 8.75419102300711 0 0 0
237 1 1 -1.65506770056961 4.16399561808949 9.04610888474215 0 0 0
238 1 1 -0.999762722928816 4.460673825379049 9.69880012256279 0 0 0
239 1 1 -1.39104028893012 5.343704075289629 9.83200411350772 0 0 0
240 1 1 -0.939606613484997 6.18986092452084 9.55002603857821 0 0 0
241 1 1 -1.31427028441591 7.01159905099694 9.71664885226214 0 0 0
242 1 1 -1.47641205440732 6.78846159304209 8.740722463756597 0 0 0
243 1 1 -0.9815770714340329 7.3031678821621595 8.116166399915958 0 0 0
244 1 1 -0.18288314545196493 6.8494889982818306 8.216712456139868 0 0 0
245 1 1 0.05616351849184836 6.7741621854267695 9.136525284956912 0 0 0
246 1 1 0.606965881386188 7.55405304817657 8.837701945238068 0 0 0
247 1 1 1.36173909518009 8.15439668773983 8.794091321561908 0 0 0
248 1 1 0.743043688511893 8.580589655561791 9.39439643591448 0 0 0
249 1 1 1.09396034482541 9.36110367715338 9.803595713132278 0 0 0
250 1 1 2.0681092705052797 9.37200885120734 10.15955248506328 0 0 0
251 1 1 8.07253629382665 -8.35310354383085 8.46018708813072 0 0 0
252 1 1 8.17437731894636 -7.559355263418901 8.99943410139251 0 0 0
253 1 1 8.273796017472879 -7.761658493172081 9.92311853965851 0 0 0
254 1 1 7.3316934338984 -7.7193398796562995 9.80933632927679 0 0 0
255 1 1 7.6357744443688 -7.63596831975795 10.71552037558847 0 0 0
256 1 1 7.08372843904251 -8.418779781519131 10.853353226897541 0 0 0
257 1 1 6.13565767609432 -8.48587801246125 11.060809071355221 0 0 0
258 1 1 5.37954316856758 -8.03820981429584 11.628093287323411 0 0 0
259 1 1 4.53220168960394 -7.810117747402391 12.06019392935125 0 0 0
260 1 1 4.43388281755036 -7.06199018116552 11.439346223286378 0 0 0
261 1 1 4.735161887796 -6.5957147963828096 12.213073907839098 0 0 0
262 1 1 4.2444754764827906 -7.05758441515934 12.83462088189545 0 0 0
263 1 1 5.11065486810604 -7.450223845590201 12.93776179705431 0 0 0
264 1 1 5.717691949506481 -7.2895293646265 12.23932186068484 0 0 0
265 1 1 5.78219176019488 -8.16689655963997 12.67263212502312 0 0 0
266 1 1 5.905151526517611 -8.47214557432762 13.65142289477621 0 0 0
267 1 1 6.217881960783731 -9.167195914994881 13.05015596074891 0 0 0
268 1 1 6.75187974458053 -8.46306773656827 12.79248833303797 0 0 0
269 1 1 6.6690319618262 -8.23028888678527 11.896812262802321 0 0 0
270 1 1 6.92542886135148 -9.133872547817969 11.697516382657192 0 0 0
271 1 1 6.56385601161084 -9.357877370762179 10.883377935842681 0 0 0
272 1 1 6.81337780373991 -10.087243565674259 10.3418734642478 0 0 0
273 1 1 5.8293326033944295 -10.136212130897768 10.07046696346916 0 0 0
274 1 1 5.4360129483831505 -9.56857304589806 9.36743124334342 0 0 0
275 1 1 4.685827481693201 -10.114340829459138 9.356970694241951 0 0 0
276 1 1 3.95741523235935 -10.757199051258297 9.086534135941992 0 0 0
277 1 1 3.9938030630199397 -10.115915203893806 8.39957081641963 0 0 0
278 1 1 4.674678210537059 -9.504966628067248 8.59877316877303 0 0 0
279 1 1 4.77470739595202 -8.636654850770608 8.2104533558771 0 0 0
280 1 1 5.095294609630099 -7.819020868887897 8.50888924953734 0 0 0
281 1 1 5.105966207515911 -8.441652492998957 9.20500180589315 0 0 0
282 1 1 4.4296161714075595 -7.664420331978077 9.284073590106832 0 0 0
283 1 1 5.23380421043711 -7.326814945555617 9.61013663789502 0 0 0
284 1 1 6.14876111819652 -7.357184162312817 9.30413926851111 0 0 0
285 1 1 6.77203607409369 -7.622605275655056 8.60488030309263 0 0 0
286 1 1 7.02972783055403 -8.446308168921966 9.05810825073606 0 0 0
287 1 1 6.724020916527429 -9.317213047519019 8.957287399976849 0 0 0
288 1 1 6.50703952028924 -8.90154736913913 9.838061608182919 0 0 0
289 1 1 5.8985863207905 -8.163409285448001 9.84477558750775 0 0 0
290 1 1 5.45005847322987 -7.65911787249014 10.55578427804613 0 0 0
291 1 1 6.423603535632731 -7.52686363582806 10.510759804214588 0 0 0
292 1 1 6.90739645542282 -7.335784683123911 11.319369917608999 0 0 0
293 1 1 6.96224400360561 -6.69394928234665 10.552424722424867 0 0 0
294 1 1 7.08848025510304 -5.932125395800201 9.963013394702386 0 0 0
295 1 1 8.01130991714125 -6.38023014285326 9.950889971559988 0 0 0
296 1 1 8.86251438061088 -6.767950926986309 9.614634107550398 0 0 0
297 1 1 9.35704642299102 -5.997237572707371 9.896843312253377 0 0 0
298 1 1 9.849830946141191 -5.58806941228578 9.181887852481408 0 0 0
299 1 1 9.74009023063339 -4.70688200283958 9.522682447776567 0 0 0
300 1 1 8.941694792828818 -4.29492177857132 9.420692998212747 0 0 0
301 1 1 -3.21239336287353 1.64240053647348 2.7738813780602998 0 0 0
302 1 1 -2.80680884217103 0.874097061227907 2.40060915307762 0 0 0
303 1 1 -1.95844664273338 0.7760006596451031 2.91281188508483 0 0 0
304 1 1 -1.77942280700468 -0.21837145257366997 2.79199765653252 0 0 0
305 1 1 -0.9015507405118829 -0.29266591692792 2.37053803116344 0 0 0
306 1 1 -1.48420059312134 -0.948727806466298 2.01900318885748 0 0 0
307 1 1 -2.35640315485796 -0.5647459700432671 1.8981726672346002 0 0 0
308 1 1 -1.92758444677099 -0.663347452555572 1.0689647872522199 0 0 0
309 1 1 -0.982061771246702 -0.7572004531516241 0.8839125845132171 0 0 0
310 1 1 -0.856250804646548 0.14059238802181695 0.542535124325113 0 0 0
311 1 1 -0.3375972286026401 0.30086288177586695 1.26771501206101 0 0 0
312 1 1 -1.26960611868758 0.10250402513258894 1.55536722873603 0 0 0
313 1 1 -2.19443624889575 0.3653162620240809 1.3945472837632502 0 0 0
314 1 1 -1.5422581889645701 0.7372359146907108 0.820225532491801 0 0 0
315 1 1 -1.7582774484216201 0.16676821891954086 0.08403497011482308 0 0 0
316 1 1 -1.11868662215186 -0.1306673747675211 -0.46112357394505 0 0 0
317 1 1 -0.23598489533572897 -0.2487220468865881 -0.18123137358377606 0 0 0
318 1 1 -0.6578473339727471 -1.04277595031736 -0.48073677095240397 0 0 0
319 1 1 -1.45222652850437 -1.5607589624285099 -0.165462138369751 0 0 0
320 1 1 -2.08454641884919 -0.811435378388884 -0.4364364334047829 0 0 0
321 1 1 -2.72843667914896 -0.9868939104763951 -1.13692822559528 0 0 0
322 1 1 -2.73590083461819 -1.5536832725015 -0.3752559450477069 0 0 0
323 1 1 -2.8082739759307005 -1.12875679002771 0.42399354431903225 0 0 0
324 1 1 -3.0699361958907097 -0.523292494558985 1.09814631632991 0 0 0
325 1 1 -3.2341372485491604 0.158513053944336 1.8069044200777 0 0 0
326 1 1 -3.0945783494500696 -0.045980667110770285 2.77428560260644 0 0 0
327 1 1 -3.17180444576451 0.397800549781705 3.66281254263805 0 0 0
328 1 1 -3.24403106152807 0.644432069543457 4.63381765607543 0 0 0
329 1 1 -3.1042813250710397 1.5102532371239399 4.37055865992977 0 0 0
330 1 1 -3.52736297445098 1.68498379004865 5.2515387356195005 0 0 0
331 1 1 -4.05960300449915 1.2152069510780201 5.86518080960097 0 0 0
332 1 1 -4.6974466140502695 1.2815098649963999 6.55060198215163 0 0 0
333 1 1 -5.0168903321045395 1.8172763698631698 5.782206407781469 0 0 0
334 1 1 -4.80570287489473 2.37179908567965 6.5606104815652095 0 0 0
335 1 1 -4.76254092873193 3.3358390965331797 6.58028956250494 0 0 0
336 1 1 -4.51696895426689 3.31494934557705 5.66047996626956 0 0 0
337 1 1 -4.4868458291884 2.55341426521271 5.0732640648004805 0 0 0
338 1 1 -3.75416654837582 2.75315942836999 4.52180602583809 0 0 0
339 1 1 -3.92396069488486 3.62836316681502 4.93249479129247 0 0 0
340 1 1 -3.4280913223792897 2.96910385999439 5.53726004067074 0 0 0
341 1 1 -2.7087264231598596 3.5955002369339 5.78937032663629 0 0 0
342 1 1 -1.77559540067998 3.41255910771469 5.550625955655921 0 0 0
343 1 1 -1.65837146868762 3.20244206955958 6.396239828471679 0 0 0
344 1 1 -2.13451867449878 3.81138164888786 6.97333946201115 0 0 0
345 1 1 -2.88006036636231 4.2247688655850695 6.6818857655679205 0 0 0
346 1 1 -3.1843683359008996 5.0217408230390195 7.17313937393399 0 0 0
347 1 1 -2.6122567852769705 4.580285049633059 7.83487780243582 0 0 0
348 1 1 -2.11847657453341 4.87676873801449 7.05602310165143 0 0 0
349 1 1 -1.24328883577067 5.04685618855552 7.250844841595531 0 0 0
350 1 1 -1.4190346484009497 6.037767599523701 6.98961838045874 0 0 0
351 1 1 1.06083467811938 5.743206516966819 -0.38080603693553905 0 0 0
352 1 1 0.509311870458344 6.487016379390139 0.013340997248246111 0 0 0
353 1 1 0.8698225520751619 6.492276953654339 0.885993328055664 0 0 0
354 1 1 1.4893051008496898 7.16468579289633 0.57141779599945 0 0 0
355 1 1 2.05020982293013 7.18796294709918 -0.26179163715354303 0 0 0
356 1 1 1.9976728333354 6.28215441789964 -0.002312446526554268 0 0 0
357 1 1 2.17255380483894 5.420651484577661 0.274241508305979 0 0 0
358 1 1 1.6455372988445902 4.714611861011281 0.655674047236376 0 0 0
359 1 1 1.50992057663423 5.54770906248841 1.151820999535 0 0 0
360 1 1 2.36255169179267 5.2456571054037004 1.3498619529294398 0 0 0
361 1 1 2.1649206664211698 4.42381800343867 1.85282045035173 0 0 0
362 1 1 1.40030799236588 3.83779424771992 2.06197821172691 0 0 0
363 1 1 0.612909850810349 3.30978706258484 2.18525198588404 0 0 0
364 1 1 1.19911246655893 2.80700648625592 1.5954461575369798 0 0 0
365 1 1 1.33267486710778 3.13475480972445 0.6409147315968879 0 0 0
366 1 1 1.80258045207409 2.68337352297185 -0.13194133962438304 0 0 0
367 1 1 2.3700660192512797 3.2320615876739103 -0.670949573263947 0 0 0
368 1 1 3.29930500738999 2.9048625056588797 -0.7361320642114109 0 0 0
369 1 1 3.17603571523325 3.5363678108537 -0.0526586280359691 0 0 0
370 1 1 3.5702673836991696 3.80582695328215 0.7444751907182591 0 0 0
371 1 1 3.1356675285193996 3.26474366109213 1.45226623371194 0 0 0
372 1 1 2.47158953029114 2.85441096252081 0.8281103277452199 0 0 0
373 1 1 2.01224958715975 3.72898433854285 1.09740695755604 0 0 0
374 1 1 2.35665234826379 4.020887175104701 0.27222472553488697 0 0 0
375 1 1 3.07514205625376 4.68366149821238 0.477566323068039 0 0 0
376 1 1 3.8218599817461096 5.13876375965675 0.7893774763175079 0 0 0
377 1 1 3.3715253386136697 5.58241321504745 1.4771814682509 0 0 0
378 1 1 3.1257458543663903 6.4722029284134805 1.69925998503396 0 0 0
379 1 1 3.505595380216 6.9415497563740995 2.41102495502768 0 0 0
380 1 1 4.06889422300854 6.21256361851592 2.45974865416047 0 0 0
381 1 1 4.15166700115695 5.907334823507131 3.34277001724239 0 0 0
382 1 1 4.57122261534311 6.775428336644829 3.3247106669189197 0 0 0
383 1 1 4.731139158435719 7.15055526855936 2.42542080017199 0 0 0
384 1 1 5.61464648735092 7.0484207203148195 2.7981080990938403 0 0 0
385 1 1 5.201997636750679 6.199234108226019 2.72448268059968 0 0 0
386 1 1 5.93041326760341 6.149011238919059 2.07480365534786 0 0 0
387 1 1 5.09109357472879 6.50630170856927 1.7055000013351798 0 0 0
388 1 1 4.459032947560599 5.80096540293422 1.4074685170174301 0 0 0
389 1 1 4.60905794705426 5.07239549355645 2.0935417012013797 0 0 0
390 1 1 4.578246966449241 4.1891265318639705 2.54163038924424 0 0 0
391 1 1 3.8060779248741095 3.8544348068813394 2.08637176792548 0 0 0
392 1 1 3.2166322444752002 4.65017781867092 2.226573263675 0 0 0
393 1 1 3.46819325667392 5.38667763533062 2.6620572942534597 0 0 0
394 1 1 2.5255350766655003 5.558613006296741 2.53436690696691 0 0 0
395 1 1 1.6444258043783602 5.57255022767408 2.81241051273004 0 0 0
396 1 1 2.0283194642659397 5.37982143416239 3.69427183669917 0 0 0
397 1 1 2.6847357630383097 4.77577134636316 3.36401926516864 0 0 0
398 1 1 3.5632365215012998 5.1897538030077195 3.73464474273952 0 0 0
399 1 1 3.03310724355921 5.072453973402331 4.55583355703708 0 0 0
400 1 1 2.80836145486004 6.042305237991401 4.663431492860741 0 0 0
401 1 1 -7.486174493175059 0.805123498905299 -8.746905700336809 0 0 0
402 1 1 -7.81897617378875 1.13711391979572 -7.968807274287231 0 0 0
403 1 1 -8.618098674919269 1.70222651258979 -7.92656007632294 0 0 0
404 1 1 -7.783078874813991 2.1671383492593796 -7.743420959103861 0 0 0
405 1 1 -8.524533955351139 2.77426749872081 -7.58634780523053 0 0 0
406 1 1 -9.386849685608624 3.2138075130830197 -7.98850401254171 0 0 0
407 1 1 -8.841556792994929 3.96164410028181 -8.45079940500303 0 0 0
408 1 1 -9.144812436346221 4.505178071268009 -9.131004090027309 0 0 0
409 1 1 -8.513972187603962 3.8566167640601097 -9.407951748303459 0 0 0
410 1 1 -7.658303871751872 4.18978245909021 -9.659219624049868 0 0 0
411 1 1 -8.044531544336731 3.46353452966881 -10.132099316801927 0 0 0
412 1 1 -7.105673523705551 3.1376292440956 -9.95140301052648 0 0 0
413 1 1 -7.269796188219132 3.4318730856884105 -9.02944884121413 0 0 0
414 1 1 -8.165119049964922 2.91054807159188 -8.792513390123789 0 0 0
415 1 1 -7.916027190726342 3.53967797999652 -8.123794422298348 0 0 0
416 1 1 -7.112663256435002 3.17161782489271 -7.789815340066029 0 0 0
417 1 1 -6.966653179074882 2.49974213169798 -7.068141471347178 0 0 0
418 1 1 -7.817678736700972 2.37648433165844 -6.638324226718297 0 0 0
419 1 1 -8.524710905859292 2.90119984220333 -6.214753593280467 0 0 0
420 1 1 -7.883769874122833 3.45537344172211 -5.691901998390217 0 0 0
421 1 1 -7.855462653026882 2.5596270381224002 -5.248596879152249 0 0 0
422 1 1 -6.916553398992072 2.62064541637492 -4.952468875114248 0 0 0
423 1 1 -7.601787488689742 2.72571497044984 -4.308264702732498 0 0 0
424 1 1 -8.333467100359561 2.9234401264972503 -3.7202444819579585 0 0 0
425 1 1 -8.04213323482668 2.58464038109862 -2.9044077248162483 0 0 0
426 1 1 -7.938537035830242 3.4298594956658595 -2.4794343952034685 0 0 0
427 1 1 -8.300045890853573 3.44428932218373 -1.5957866611072782 0 0 0
428 1 1 -7.796414257927632 4.261322344971609 -1.6891626476488284 0 0 0
429 1 1 -7.1742687030109815 4.96734386716433 -1.703514949502688 0 0 0
430 1 1 -6.710016548936382 5.559000615153719 -2.280523212564538 0 0 0
431 1 1 -6.466332728153192 4.68362798550491 -2.4891740744570683 0 0 0
432 1 1 -6.590504118607561 3.7051227573689105 -2.501873460269138 0 0 0
433 1 1 -7.339954114841421 4.16265297859151 -2.9060829166255386 0 0 0